/*--------------------------------*- C++ -*----------------------------------*\
| =========                 |                                                 |
| \\      /  F ield         | OpenFOAM: The Open Source CFD Toolbox           |
|  \\    /   O peration     | Version:  2506                                  |
|   \\  /    A nd           | Website:  www.openfoam.com                      |
|    \\/     M anipulation  |                                                 |
\*---------------------------------------------------------------------------*/
FoamFile
{
    version     2.0;
    format      ascii;
    arch        "LSB;label=32;scalar=64";
    class       volScalarField;
    location    "400";
    object      epsilon;
}
// * * * * * * * * * * * * * * * * * * * * * * * * * * * * * * * * * * * * * //

dimensions      [0 2 -3 0 0 0 0];

internalField   nonuniform List<scalar> 
131949
(
0.427376
0.492067
0.494246
0.487067
0.480357
0.474537
0.469355
0.464768
0.460688
0.457004
0.453632
0.450508
0.447586
0.44483
0.442212
0.43971
0.437308
0.434992
0.432751
0.430576
0.42846
0.426396
0.424379
0.422405
0.420469
0.41857
0.416703
0.414866
0.413058
0.411277
0.40952
0.407786
0.406074
0.404383
0.402712
0.401059
0.399424
0.397806
0.396205
0.394619
0.393049
0.391493
0.389951
0.388423
0.386907
0.385405
0.383915
0.382437
0.380971
0.379516
0.378072
0.376639
0.375217
0.373805
0.372403
0.371011
0.369629
0.368257
0.366894
0.36554
0.364195
0.362859
0.361532
0.360213
0.358903
0.357601
0.356307
0.355022
0.353744
0.352474
0.351212
0.349958
0.348711
0.347472
0.34624
0.345015
0.343798
0.342587
0.341384
0.340188
0.338998
0.337815
0.336639
0.33547
0.334307
0.333151
0.332001
0.330857
0.32972
0.328589
0.327465
0.326346
0.325234
0.324127
0.323027
0.321932
0.320843
0.31976
0.318683
0.317612
0.316546
0.315486
0.314431
0.313382
0.312338
0.3113
0.310267
0.30924
0.308218
0.307201
0.306189
0.305183
0.304181
0.303185
0.302194
0.301207
0.300226
0.29925
0.298278
0.297312
0.29635
0.295393
0.294441
0.293493
0.292551
0.291613
0.290679
0.28975
0.288826
0.287906
0.286991
0.28608
0.285174
0.284272
0.283374
0.282481
0.281592
0.280707
0.279827
0.27895
0.278078
0.27721
0.276347
0.275487
0.274632
0.27378
0.272933
0.272089
0.27125
0.270414
0.269583
0.268755
0.267931
0.267112
0.266295
0.265483
0.264675
0.26387
0.263069
0.262272
0.261478
0.260688
0.259902
0.259119
0.25834
0.257564
0.256792
0.256023
0.255258
0.254497
0.253739
0.252984
0.252233
0.251485
0.25074
0.249999
0.249261
0.248527
0.247796
0.247068
0.246343
0.245621
0.244903
0.244188
0.243476
0.242767
0.242062
0.241359
0.24066
0.239964
0.23927
0.23858
0.237893
0.237209
0.236528
0.23585
0.235174
0.234502
0.233833
0.233167
0.232503
0.231843
0.231185
0.23053
0.229879
0.22923
0.228583
0.22794
0.2273
0.226662
0.226027
0.225395
0.224765
0.224139
0.223515
0.222894
0.222275
0.22166
0.221047
0.220436
0.219829
0.219224
0.218621
0.218022
0.217425
0.21683
0.216239
0.21565
0.215063
0.214479
0.213898
0.213319
0.212743
0.212169
0.211598
0.211029
0.210463
0.2099
0.209339
0.20878
0.208224
0.20767
0.207119
0.20657
0.206024
0.20548
0.204938
0.204399
0.203862
0.203328
0.202796
0.202266
0.201738
0.201213
0.20069
0.200169
0.199651
0.199135
0.198621
0.198109
0.197599
0.197092
0.196586
0.196083
0.195582
0.195083
0.194586
0.194091
0.193598
0.193106
0.192617
0.19213
0.191645
0.191161
0.19068
0.1902
0.189722
0.189246
0.188771
0.188299
0.187827
0.187358
0.18689
0.186424
0.185959
0.185496
0.185034
0.184573
0.184114
0.183656
0.1832
0.182744
0.18229
0.181837
0.181385
0.180935
0.180485
0.180036
0.179588
0.17914
0.178694
0.178248
0.177803
0.177358
0.176914
0.17647
0.176027
0.175583
0.175141
0.174698
0.174255
0.173813
0.17337
0.172927
0.172485
0.172041
0.171598
0.171154
0.170709
0.170264
0.169819
0.169372
0.168925
0.168477
0.168028
0.167578
0.167127
0.166675
0.166222
0.165768
0.165312
0.164855
0.164396
0.163936
0.163474
0.163011
0.162546
0.16208
0.161611
0.161141
0.16067
0.160196
0.159721
0.159244
0.158766
0.158285
0.157803
0.157319
0.156833
0.156346
0.155857
0.155366
0.154874
0.15438
0.153885
0.153389
0.152892
0.152393
0.151893
0.151393
0.150892
0.15039
0.149889
0.149387
0.148885
0.148383
0.147881
0.147381
0.146881
0.146383
0.145886
0.145391
0.144899
0.144408
0.143921
0.143437
0.142956
0.14248
0.142007
0.14154
0.141078
0.140621
0.14017
0.139726
0.139289
0.138859
0.138437
0.138024
0.137619
0.137223
0.136836
0.13646
0.136094
0.135738
0.135393
0.13506
0.134738
0.134428
0.134141
0.133892
0.270384
0.330571
0.37502
0.402594
0.41976
0.430197
0.436092
0.439154
0.440495
0.440756
0.440323
0.43944
0.438262
0.436889
0.435385
0.433795
0.432147
0.430462
0.428755
0.427036
0.425311
0.423586
0.421865
0.42015
0.418443
0.416746
0.41506
0.413384
0.411721
0.410069
0.40843
0.406802
0.405187
0.403585
0.401994
0.400415
0.398848
0.397292
0.395748
0.394215
0.392693
0.391183
0.389683
0.388193
0.386714
0.385245
0.383787
0.382338
0.380899
0.37947
0.37805
0.37664
0.375238
0.373846
0.372463
0.371089
0.369723
0.368366
0.367017
0.365677
0.364345
0.363021
0.361705
0.360398
0.359098
0.357805
0.356521
0.355244
0.353974
0.352712
0.351458
0.35021
0.34897
0.347737
0.34651
0.345291
0.344079
0.342873
0.341675
0.340483
0.339297
0.338118
0.336946
0.33578
0.33462
0.333467
0.33232
0.33118
0.330045
0.328916
0.327794
0.326678
0.325567
0.324462
0.323364
0.322271
0.321183
0.320102
0.319026
0.317956
0.316891
0.315832
0.314778
0.31373
0.312687
0.31165
0.310618
0.309591
0.308569
0.307552
0.306541
0.305535
0.304534
0.303538
0.302547
0.30156
0.300579
0.299603
0.298631
0.297665
0.296703
0.295746
0.294793
0.293846
0.292903
0.291964
0.291031
0.290101
0.289177
0.288256
0.287341
0.286429
0.285522
0.28462
0.283722
0.282828
0.281938
0.281053
0.280172
0.279295
0.278423
0.277554
0.27669
0.275829
0.274973
0.274121
0.273273
0.272429
0.271588
0.270752
0.26992
0.269091
0.268267
0.267446
0.266629
0.265816
0.265007
0.264201
0.263399
0.262601
0.261806
0.261016
0.260228
0.259445
0.258665
0.257888
0.257115
0.256346
0.25558
0.254817
0.254058
0.253303
0.25255
0.251801
0.251056
0.250314
0.249575
0.24884
0.248107
0.247378
0.246653
0.24593
0.245211
0.244495
0.243782
0.243072
0.242366
0.241662
0.240962
0.240265
0.23957
0.238879
0.238191
0.237506
0.236824
0.236145
0.235469
0.234796
0.234125
0.233458
0.232794
0.232132
0.231474
0.230818
0.230165
0.229515
0.228868
0.228224
0.227582
0.226944
0.226308
0.225675
0.225044
0.224417
0.223792
0.22317
0.222551
0.221934
0.22132
0.220709
0.2201
0.219495
0.218891
0.218291
0.217693
0.217098
0.216505
0.215915
0.215328
0.214743
0.214161
0.213581
0.213004
0.21243
0.211858
0.211288
0.210721
0.210157
0.209595
0.209036
0.208479
0.207924
0.207372
0.206823
0.206276
0.205731
0.205189
0.204649
0.204111
0.203576
0.203043
0.202512
0.201984
0.201458
0.200934
0.200413
0.199894
0.199377
0.198862
0.198349
0.197839
0.197331
0.196825
0.196321
0.195819
0.195319
0.194821
0.194325
0.193832
0.19334
0.19285
0.192362
0.191876
0.191392
0.190909
0.190429
0.18995
0.189473
0.188998
0.188524
0.188053
0.187582
0.187114
0.186647
0.186181
0.185717
0.185254
0.184793
0.184333
0.183874
0.183417
0.182961
0.182506
0.182052
0.181599
0.181147
0.180696
0.180246
0.179797
0.179349
0.178901
0.178454
0.178008
0.177562
0.177117
0.176672
0.176227
0.175783
0.175339
0.174895
0.174451
0.174007
0.173563
0.173119
0.172674
0.172229
0.171784
0.171339
0.170893
0.170446
0.169999
0.169551
0.169102
0.168652
0.168201
0.167749
0.167296
0.166842
0.166386
0.16593
0.165472
0.165012
0.164551
0.164089
0.163625
0.163159
0.162692
0.162222
0.161752
0.161279
0.160805
0.160328
0.15985
0.15937
0.158889
0.158405
0.15792
0.157432
0.156943
0.156453
0.15596
0.155466
0.15497
0.154473
0.153975
0.153475
0.152973
0.152471
0.151968
0.151463
0.150958
0.150453
0.149947
0.149441
0.148935
0.148429
0.147923
0.147419
0.146915
0.146412
0.145911
0.145412
0.144915
0.144421
0.143929
0.143441
0.142956
0.142476
0.142
0.141528
0.141062
0.140601
0.140147
0.139699
0.139259
0.138825
0.1384
0.137983
0.137575
0.137176
0.136787
0.136408
0.136039
0.135681
0.135334
0.134999
0.134675
0.134363
0.134074
0.133826
0.228178
0.258029
0.288821
0.316249
0.339562
0.358689
0.373776
0.385402
0.394259
0.400937
0.405914
0.409569
0.412198
0.414028
0.415232
0.415943
0.416263
0.416269
0.416025
0.415576
0.414963
0.414214
0.413354
0.412402
0.411375
0.410285
0.409143
0.407957
0.406736
0.405485
0.404209
0.402913
0.4016
0.400274
0.398936
0.397591
0.396238
0.39488
0.393519
0.392156
0.390791
0.389426
0.388062
0.386699
0.385338
0.383979
0.382624
0.381271
0.379923
0.378578
0.377238
0.375902
0.374571
0.373245
0.371924
0.370609
0.369299
0.367994
0.366695
0.365402
0.364114
0.362832
0.361556
0.360286
0.359022
0.357763
0.356511
0.355265
0.354024
0.35279
0.351561
0.350339
0.349122
0.347912
0.346707
0.345509
0.344316
0.343129
0.341948
0.340773
0.339603
0.33844
0.337282
0.33613
0.334984
0.333844
0.332709
0.33158
0.330456
0.329338
0.328226
0.327119
0.326018
0.324922
0.323831
0.322746
0.321666
0.320592
0.319523
0.318459
0.317401
0.316348
0.3153
0.314257
0.313219
0.312187
0.311159
0.310136
0.309119
0.308106
0.307099
0.306096
0.305098
0.304105
0.303117
0.302134
0.301155
0.300182
0.299213
0.298248
0.297288
0.296333
0.295383
0.294437
0.293495
0.292558
0.291626
0.290698
0.289774
0.288855
0.28794
0.28703
0.286124
0.285222
0.284324
0.283431
0.282542
0.281657
0.280776
0.279899
0.279027
0.278158
0.277294
0.276434
0.275577
0.274725
0.273877
0.273032
0.272192
0.271355
0.270523
0.269694
0.268869
0.268047
0.26723
0.266416
0.265606
0.2648
0.263997
0.263198
0.262403
0.261611
0.260823
0.260039
0.259258
0.25848
0.257706
0.256936
0.256169
0.255405
0.254645
0.253888
0.253135
0.252385
0.251639
0.250895
0.250155
0.249419
0.248685
0.247955
0.247228
0.246504
0.245784
0.245066
0.244352
0.243641
0.242933
0.242228
0.241527
0.240828
0.240133
0.23944
0.23875
0.238064
0.23738
0.2367
0.236022
0.235348
0.234676
0.234007
0.233342
0.232679
0.232019
0.231362
0.230707
0.230056
0.229407
0.228761
0.228119
0.227478
0.226841
0.226206
0.225575
0.224946
0.224319
0.223696
0.223075
0.222457
0.221842
0.221229
0.220619
0.220012
0.219407
0.218805
0.218206
0.217609
0.217015
0.216424
0.215835
0.215249
0.214665
0.214084
0.213505
0.21293
0.212356
0.211785
0.211217
0.210651
0.210088
0.209527
0.208969
0.208413
0.20786
0.207309
0.20676
0.206214
0.20567
0.205129
0.20459
0.204053
0.203519
0.202987
0.202458
0.20193
0.201405
0.200883
0.200362
0.199844
0.199328
0.198814
0.198302
0.197793
0.197285
0.19678
0.196277
0.195776
0.195277
0.19478
0.194284
0.193791
0.1933
0.192811
0.192324
0.191838
0.191355
0.190873
0.190393
0.189915
0.189438
0.188963
0.18849
0.188019
0.187549
0.18708
0.186613
0.186148
0.185684
0.185221
0.18476
0.1843
0.183841
0.183383
0.182927
0.182472
0.182017
0.181564
0.181112
0.18066
0.180209
0.17976
0.17931
0.178862
0.178414
0.177966
0.177519
0.177073
0.176627
0.17618
0.175735
0.175289
0.174843
0.174397
0.173951
0.173505
0.173059
0.172612
0.172165
0.171717
0.171269
0.17082
0.17037
0.169919
0.169468
0.169016
0.168562
0.168108
0.167652
0.167195
0.166737
0.166277
0.165816
0.165354
0.16489
0.164424
0.163956
0.163487
0.163016
0.162544
0.162069
0.161593
0.161114
0.160634
0.160152
0.159668
0.159182
0.158693
0.158203
0.157711
0.157217
0.156722
0.156224
0.155725
0.155223
0.15472
0.154216
0.15371
0.153203
0.152694
0.152184
0.151673
0.151161
0.150649
0.150135
0.149622
0.149108
0.148594
0.148081
0.147568
0.147055
0.146544
0.146034
0.145526
0.14502
0.144516
0.144014
0.143516
0.143021
0.14253
0.142043
0.14156
0.141083
0.140611
0.140145
0.139686
0.139233
0.138788
0.13835
0.137921
0.1375
0.137088
0.136686
0.136294
0.135912
0.135541
0.13518
0.134831
0.134494
0.13417
0.133867
0.133611
0.214641
0.227086
0.24239
0.259352
0.276821
0.293836
0.309627
0.323785
0.336198
0.346911
0.356045
0.363764
0.370243
0.375649
0.380133
0.383829
0.386853
0.389304
0.391266
0.39281
0.393996
0.394875
0.395488
0.395873
0.396061
0.396076
0.395943
0.395679
0.395301
0.394824
0.394259
0.393618
0.392909
0.39214
0.391319
0.390451
0.389542
0.388597
0.38762
0.386614
0.385583
0.38453
0.383458
0.382368
0.381263
0.380145
0.379015
0.377875
0.376727
0.375571
0.374408
0.373241
0.372068
0.370892
0.369713
0.368532
0.367349
0.366165
0.364981
0.363796
0.362612
0.361428
0.360246
0.359064
0.357885
0.356707
0.355532
0.354359
0.353188
0.35202
0.350856
0.349694
0.348536
0.347381
0.346229
0.345082
0.343937
0.342797
0.341661
0.340529
0.3394
0.338276
0.337156
0.33604
0.334929
0.333821
0.332718
0.33162
0.330526
0.329436
0.32835
0.32727
0.326193
0.325121
0.324054
0.322991
0.321933
0.320879
0.31983
0.318785
0.317745
0.316709
0.315678
0.314651
0.313629
0.312611
0.311598
0.31059
0.309585
0.308586
0.30759
0.3066
0.305613
0.304631
0.303654
0.30268
0.301712
0.300747
0.299787
0.298831
0.29788
0.296933
0.29599
0.295051
0.294117
0.293187
0.292261
0.291339
0.290421
0.289508
0.288599
0.287693
0.286792
0.285895
0.285002
0.284113
0.283228
0.282348
0.281471
0.280598
0.279729
0.278864
0.278002
0.277145
0.276292
0.275442
0.274596
0.273754
0.272916
0.272082
0.271251
0.270424
0.269601
0.268781
0.267965
0.267153
0.266344
0.265539
0.264738
0.26394
0.263146
0.262355
0.261568
0.260784
0.260004
0.259227
0.258453
0.257683
0.256917
0.256154
0.255394
0.254637
0.253884
0.253134
0.252387
0.251644
0.250904
0.250167
0.249433
0.248703
0.247976
0.247252
0.246531
0.245813
0.245098
0.244386
0.243678
0.242972
0.24227
0.241571
0.240874
0.240181
0.239491
0.238803
0.238119
0.237438
0.236759
0.236083
0.235411
0.234741
0.234074
0.23341
0.232749
0.232091
0.231435
0.230783
0.230133
0.229486
0.228842
0.2282
0.227562
0.226926
0.226293
0.225663
0.225035
0.22441
0.223788
0.223169
0.222552
0.221938
0.221326
0.220718
0.220112
0.219508
0.218907
0.218309
0.217714
0.217121
0.216531
0.215943
0.215358
0.214775
0.214195
0.213618
0.213043
0.212471
0.211901
0.211334
0.210769
0.210207
0.209647
0.20909
0.208535
0.207982
0.207432
0.206885
0.206339
0.205797
0.205256
0.204718
0.204182
0.203649
0.203118
0.202589
0.202063
0.201538
0.201016
0.200496
0.199979
0.199464
0.19895
0.198439
0.19793
0.197424
0.196919
0.196416
0.195916
0.195417
0.194921
0.194426
0.193933
0.193443
0.192954
0.192467
0.191982
0.191499
0.191017
0.190537
0.190059
0.189583
0.189108
0.188635
0.188164
0.187694
0.187225
0.186758
0.186292
0.185828
0.185365
0.184904
0.184443
0.183984
0.183526
0.183069
0.182613
0.182158
0.181704
0.181251
0.180798
0.180347
0.179896
0.179445
0.178996
0.178546
0.178097
0.177649
0.177201
0.176752
0.176305
0.175857
0.175409
0.174961
0.174513
0.174064
0.173616
0.173166
0.172717
0.172267
0.171816
0.171364
0.170912
0.170459
0.170005
0.16955
0.169093
0.168636
0.168177
0.167717
0.167256
0.166793
0.166329
0.165863
0.165395
0.164925
0.164454
0.163981
0.163506
0.163029
0.162551
0.16207
0.161587
0.161102
0.160615
0.160126
0.159634
0.159141
0.158645
0.158148
0.157648
0.157146
0.156642
0.156136
0.155628
0.155118
0.154606
0.154093
0.153578
0.153061
0.152543
0.152023
0.151503
0.150981
0.150458
0.149935
0.149411
0.148886
0.148362
0.147838
0.147314
0.146791
0.146269
0.145748
0.145228
0.144711
0.144195
0.143683
0.143173
0.142666
0.142164
0.141665
0.141171
0.140682
0.140199
0.139722
0.139251
0.138787
0.13833
0.137881
0.13744
0.137008
0.136585
0.136172
0.135769
0.135376
0.134994
0.134623
0.134263
0.133917
0.133593
0.133322
0.210105
0.215481
0.2225
0.231134
0.241112
0.252031
0.263409
0.274799
0.285863
0.296364
0.30615
0.315143
0.323314
0.330676
0.337263
0.343123
0.348311
0.352884
0.356899
0.360409
0.363464
0.366111
0.368392
0.370344
0.372002
0.373395
0.37455
0.375493
0.376245
0.376824
0.377248
0.377533
0.377691
0.377735
0.377676
0.377523
0.377287
0.376973
0.37659
0.376143
0.375639
0.375082
0.374478
0.37383
0.373143
0.37242
0.371664
0.370878
0.370065
0.369227
0.368366
0.367484
0.366584
0.365666
0.364733
0.363786
0.362826
0.361854
0.360872
0.35988
0.35888
0.357872
0.356857
0.355837
0.35481
0.353779
0.352744
0.351706
0.350664
0.34962
0.348573
0.347525
0.346475
0.345425
0.344373
0.343322
0.34227
0.341218
0.340167
0.339117
0.338067
0.337019
0.335972
0.334926
0.333882
0.33284
0.3318
0.330762
0.329726
0.328692
0.327661
0.326633
0.325607
0.324583
0.323563
0.322545
0.321531
0.320519
0.31951
0.318505
0.317503
0.316503
0.315508
0.314515
0.313526
0.31254
0.311558
0.310579
0.309604
0.308632
0.307664
0.306699
0.305738
0.304781
0.303827
0.302876
0.30193
0.300987
0.300047
0.299111
0.298179
0.297251
0.296326
0.295405
0.294488
0.293574
0.292664
0.291758
0.290855
0.289956
0.289061
0.288169
0.287281
0.286397
0.285516
0.284639
0.283765
0.282896
0.282029
0.281167
0.280308
0.279452
0.278601
0.277752
0.276908
0.276067
0.275229
0.274395
0.273564
0.272737
0.271914
0.271094
0.270277
0.269464
0.268655
0.267848
0.267045
0.266246
0.26545
0.264657
0.263868
0.263082
0.262299
0.26152
0.260744
0.259971
0.259202
0.258436
0.257673
0.256913
0.256157
0.255403
0.254653
0.253906
0.253162
0.252422
0.251684
0.25095
0.250219
0.249491
0.248765
0.248043
0.247324
0.246608
0.245895
0.245185
0.244478
0.243774
0.243073
0.242375
0.24168
0.240988
0.240299
0.239612
0.238929
0.238248
0.23757
0.236895
0.236223
0.235554
0.234888
0.234224
0.233564
0.232906
0.23225
0.231598
0.230948
0.230301
0.229657
0.229016
0.228377
0.227741
0.227108
0.226478
0.22585
0.225225
0.224602
0.223982
0.223365
0.222751
0.222139
0.22153
0.220923
0.220319
0.219718
0.219119
0.218523
0.217929
0.217338
0.21675
0.216164
0.215581
0.215
0.214422
0.213846
0.213273
0.212702
0.212134
0.211569
0.211005
0.210445
0.209886
0.20933
0.208777
0.208226
0.207677
0.207131
0.206587
0.206046
0.205506
0.20497
0.204435
0.203903
0.203373
0.202845
0.20232
0.201797
0.201276
0.200757
0.200241
0.199726
0.199214
0.198704
0.198196
0.19769
0.197186
0.196684
0.196185
0.195687
0.195191
0.194697
0.194205
0.193715
0.193227
0.19274
0.192256
0.191773
0.191292
0.190813
0.190335
0.189859
0.189384
0.188911
0.18844
0.18797
0.187502
0.187035
0.186569
0.186105
0.185642
0.18518
0.184719
0.18426
0.183801
0.183344
0.182887
0.182431
0.181977
0.181523
0.181069
0.180617
0.180165
0.179713
0.179262
0.178811
0.178361
0.177911
0.177461
0.177011
0.176561
0.176111
0.175661
0.175211
0.174761
0.17431
0.173859
0.173407
0.172954
0.172501
0.172047
0.171592
0.171137
0.17068
0.170222
0.169763
0.169303
0.168841
0.168378
0.167913
0.167447
0.16698
0.16651
0.166039
0.165566
0.165091
0.164614
0.164135
0.163654
0.163171
0.162685
0.162198
0.161708
0.161216
0.160722
0.160225
0.159726
0.159224
0.158721
0.158215
0.157706
0.157196
0.156683
0.156167
0.15565
0.15513
0.154609
0.154085
0.15356
0.153032
0.152503
0.151973
0.15144
0.150907
0.150373
0.149837
0.149301
0.148764
0.148227
0.14769
0.147153
0.146616
0.14608
0.145545
0.145012
0.14448
0.14395
0.143422
0.142898
0.142376
0.141858
0.141344
0.140834
0.140329
0.13983
0.139336
0.138849
0.138368
0.137894
0.137429
0.136971
0.136522
0.136082
0.135651
0.13523
0.13482
0.13442
0.134032
0.133656
0.133305
0.133014
0.208358
0.2109
0.214191
0.218358
0.223454
0.229446
0.236207
0.243546
0.251261
0.259157
0.267063
0.274834
0.282359
0.289557
0.296372
0.302772
0.308739
0.314272
0.319375
0.324062
0.328351
0.332261
0.335815
0.339035
0.341943
0.344561
0.34691
0.349009
0.350877
0.352532
0.353989
0.355265
0.356372
0.357325
0.358134
0.358811
0.359366
0.359808
0.360146
0.360387
0.360539
0.360609
0.360602
0.360525
0.360382
0.360179
0.359919
0.359607
0.359246
0.358841
0.358393
0.357908
0.357386
0.35683
0.356244
0.355629
0.354987
0.35432
0.35363
0.352918
0.352187
0.351437
0.35067
0.349887
0.349089
0.348277
0.347453
0.346617
0.345771
0.344914
0.344048
0.343174
0.342291
0.341402
0.340506
0.339604
0.338697
0.337785
0.336868
0.335947
0.335022
0.334095
0.333164
0.332231
0.331296
0.330359
0.32942
0.32848
0.327539
0.326597
0.325654
0.324711
0.323768
0.322825
0.321882
0.32094
0.319998
0.319057
0.318117
0.317178
0.316239
0.315303
0.314367
0.313433
0.3125
0.31157
0.310641
0.309713
0.308788
0.307865
0.306944
0.306025
0.305108
0.304194
0.303282
0.302372
0.301465
0.30056
0.299657
0.298758
0.297861
0.296966
0.296075
0.295186
0.2943
0.293416
0.292536
0.291658
0.290783
0.289911
0.289042
0.288176
0.287313
0.286453
0.285595
0.284741
0.28389
0.283042
0.282196
0.281354
0.280515
0.279679
0.278846
0.278016
0.277189
0.276365
0.275544
0.274726
0.273912
0.2731
0.272292
0.271486
0.270684
0.269884
0.269088
0.268295
0.267505
0.266718
0.265934
0.265152
0.264375
0.2636
0.262828
0.262059
0.261293
0.26053
0.25977
0.259013
0.258259
0.257508
0.25676
0.256015
0.255273
0.254534
0.253798
0.253065
0.252334
0.251607
0.250882
0.250161
0.249442
0.248726
0.248013
0.247303
0.246595
0.245891
0.245189
0.24449
0.243794
0.243101
0.24241
0.241723
0.241038
0.240356
0.239676
0.239
0.238326
0.237654
0.236986
0.23632
0.235657
0.234997
0.234339
0.233684
0.233032
0.232382
0.231735
0.231091
0.230449
0.22981
0.229174
0.22854
0.227909
0.22728
0.226654
0.226031
0.22541
0.224792
0.224177
0.223564
0.222953
0.222346
0.22174
0.221138
0.220538
0.21994
0.219345
0.218752
0.218162
0.217575
0.21699
0.216407
0.215827
0.21525
0.214675
0.214102
0.213532
0.212964
0.212399
0.211836
0.211276
0.210718
0.210162
0.209609
0.209058
0.20851
0.207964
0.20742
0.206879
0.20634
0.205803
0.205268
0.204736
0.204206
0.203678
0.203153
0.20263
0.202108
0.20159
0.201073
0.200558
0.200046
0.199535
0.199027
0.198521
0.198016
0.197514
0.197014
0.196516
0.19602
0.195525
0.195033
0.194542
0.194053
0.193566
0.193081
0.192598
0.192116
0.191636
0.191158
0.190681
0.190206
0.189732
0.18926
0.18879
0.18832
0.187853
0.187386
0.186921
0.186457
0.185994
0.185533
0.185072
0.184613
0.184154
0.183697
0.18324
0.182784
0.182329
0.181875
0.181421
0.180968
0.180515
0.180063
0.179611
0.179159
0.178708
0.178257
0.177805
0.177354
0.176903
0.176451
0.176
0.175547
0.175095
0.174642
0.174188
0.173734
0.173279
0.172823
0.172366
0.171909
0.17145
0.17099
0.170528
0.170066
0.169602
0.169136
0.168669
0.1682
0.167729
0.167257
0.166783
0.166306
0.165828
0.165348
0.164865
0.16438
0.163893
0.163404
0.162912
0.162418
0.161921
0.161422
0.16092
0.160416
0.159909
0.1594
0.158888
0.158373
0.157856
0.157336
0.156814
0.156289
0.155762
0.155232
0.1547
0.154166
0.153629
0.153091
0.15255
0.152007
0.151463
0.150917
0.15037
0.149821
0.149271
0.148721
0.14817
0.147618
0.147066
0.146514
0.145963
0.145412
0.144862
0.144314
0.143767
0.143222
0.14268
0.14214
0.141604
0.141071
0.140543
0.140019
0.1395
0.138986
0.138479
0.137977
0.137483
0.136996
0.136517
0.136047
0.135585
0.135132
0.134689
0.134256
0.133834
0.133425
0.133041
0.132727
0.207572
0.208875
0.210512
0.212559
0.215095
0.218178
0.221821
0.225997
0.230646
0.23569
0.241039
0.2466
0.252281
0.258
0.263686
0.269277
0.274725
0.279991
0.285048
0.289876
0.294461
0.298796
0.302878
0.30671
0.310295
0.313639
0.316749
0.319635
0.322306
0.324772
0.327042
0.329126
0.331035
0.332777
0.334363
0.335801
0.3371
0.338267
0.339311
0.340238
0.341057
0.341773
0.342392
0.342921
0.343364
0.343727
0.344015
0.344232
0.344383
0.344471
0.344501
0.344475
0.344397
0.34427
0.344098
0.343882
0.343625
0.34333
0.342999
0.342635
0.342238
0.341811
0.341356
0.340875
0.340368
0.339838
0.339286
0.338713
0.33812
0.337509
0.336881
0.336236
0.335576
0.334901
0.334213
0.333512
0.3328
0.332076
0.331342
0.330598
0.329844
0.329083
0.328313
0.327535
0.326751
0.32596
0.325163
0.324361
0.323553
0.322741
0.321924
0.321103
0.320278
0.31945
0.318619
0.317784
0.316948
0.316109
0.315267
0.314424
0.31358
0.312734
0.311887
0.311039
0.31019
0.30934
0.30849
0.30764
0.306789
0.305938
0.305088
0.304238
0.303388
0.302538
0.30169
0.300841
0.299994
0.299148
0.298302
0.297458
0.296615
0.295773
0.294933
0.294094
0.293256
0.29242
0.291586
0.290753
0.289922
0.289092
0.288265
0.287439
0.286616
0.285794
0.284974
0.284156
0.283341
0.282527
0.281716
0.280907
0.2801
0.279296
0.278493
0.277693
0.276895
0.2761
0.275307
0.274516
0.273728
0.272942
0.272159
0.271378
0.2706
0.269824
0.26905
0.268279
0.267511
0.266745
0.265982
0.265221
0.264463
0.263707
0.262954
0.262203
0.261455
0.26071
0.259967
0.259227
0.258489
0.257754
0.257022
0.256292
0.255565
0.25484
0.254118
0.253398
0.252681
0.251967
0.251255
0.250546
0.249839
0.249135
0.248434
0.247735
0.247039
0.246345
0.245654
0.244965
0.244279
0.243596
0.242915
0.242236
0.24156
0.240887
0.240216
0.239548
0.238882
0.238219
0.237559
0.2369
0.236245
0.235592
0.234941
0.234293
0.233647
0.233004
0.232364
0.231725
0.23109
0.230457
0.229826
0.229198
0.228572
0.227949
0.227328
0.22671
0.226094
0.225481
0.22487
0.224262
0.223656
0.223052
0.222451
0.221852
0.221256
0.220662
0.220071
0.219482
0.218896
0.218312
0.21773
0.217151
0.216574
0.216
0.215427
0.214858
0.214291
0.213726
0.213163
0.212603
0.212045
0.211489
0.210936
0.210385
0.209837
0.20929
0.208746
0.208205
0.207665
0.207128
0.206593
0.20606
0.20553
0.205001
0.204475
0.203951
0.20343
0.20291
0.202392
0.201877
0.201364
0.200852
0.200343
0.199836
0.199331
0.198828
0.198327
0.197828
0.19733
0.196835
0.196341
0.19585
0.19536
0.194872
0.194386
0.193901
0.193419
0.192938
0.192458
0.19198
0.191504
0.19103
0.190556
0.190085
0.189614
0.189146
0.188678
0.188212
0.187747
0.187283
0.186821
0.186359
0.185899
0.18544
0.184981
0.184524
0.184067
0.183611
0.183156
0.182702
0.182248
0.181794
0.181341
0.180889
0.180437
0.179985
0.179533
0.179081
0.17863
0.178178
0.177726
0.177274
0.176822
0.176369
0.175916
0.175462
0.175007
0.174552
0.174096
0.173639
0.173182
0.172723
0.172263
0.171801
0.171339
0.170874
0.170409
0.169942
0.169473
0.169002
0.16853
0.168055
0.167579
0.1671
0.16662
0.166137
0.165651
0.165164
0.164674
0.164181
0.163686
0.163189
0.162688
0.162185
0.161679
0.161171
0.160659
0.160145
0.159628
0.159108
0.158585
0.15806
0.157531
0.157
0.156466
0.155929
0.155389
0.154846
0.154301
0.153754
0.153204
0.152651
0.152097
0.15154
0.150981
0.150421
0.149858
0.149295
0.14873
0.148163
0.147597
0.147029
0.146461
0.145893
0.145325
0.144758
0.144192
0.143627
0.143063
0.142502
0.141943
0.141386
0.140833
0.140284
0.139738
0.139198
0.138662
0.138132
0.137607
0.13709
0.136579
0.136076
0.13558
0.135094
0.134616
0.134147
0.133689
0.133243
0.132824
0.132484
0.207161
0.207854
0.208705
0.209746
0.211023
0.212585
0.214469
0.216696
0.219269
0.22218
0.225406
0.228911
0.232655
0.236591
0.240673
0.244853
0.249088
0.253339
0.257568
0.261747
0.265848
0.269849
0.273735
0.27749
0.281105
0.284572
0.287887
0.291047
0.29405
0.296898
0.299591
0.302133
0.304527
0.306776
0.308884
0.310858
0.3127
0.314416
0.316011
0.31749
0.318858
0.320119
0.321278
0.32234
0.32331
0.324191
0.324987
0.325704
0.326344
0.326911
0.327409
0.327841
0.32821
0.32852
0.328773
0.328972
0.329119
0.329219
0.329271
0.32928
0.329247
0.329174
0.329064
0.328917
0.328736
0.328523
0.328279
0.328005
0.327704
0.327376
0.327023
0.326646
0.326247
0.325825
0.325384
0.324923
0.324443
0.323946
0.323432
0.322902
0.322357
0.321798
0.321225
0.32064
0.320042
0.319433
0.318813
0.318183
0.317543
0.316893
0.316235
0.315568
0.314894
0.314212
0.313524
0.312829
0.312127
0.31142
0.310707
0.309989
0.309267
0.30854
0.307808
0.307073
0.306334
0.305592
0.304846
0.304098
0.303347
0.302593
0.301837
0.301079
0.300319
0.299558
0.298794
0.29803
0.297264
0.296497
0.29573
0.294961
0.294192
0.293422
0.292652
0.291882
0.291112
0.290341
0.289571
0.288801
0.288031
0.287261
0.286492
0.285723
0.284955
0.284188
0.283421
0.282656
0.281891
0.281127
0.280364
0.279602
0.278842
0.278082
0.277324
0.276567
0.275812
0.275058
0.274305
0.273554
0.272805
0.272057
0.27131
0.270566
0.269823
0.269081
0.268342
0.267604
0.266868
0.266134
0.265401
0.264671
0.263942
0.263216
0.262491
0.261768
0.261047
0.260329
0.259612
0.258897
0.258184
0.257474
0.256765
0.256059
0.255354
0.254652
0.253952
0.253254
0.252558
0.251864
0.251173
0.250483
0.249796
0.249111
0.248428
0.247747
0.247069
0.246392
0.245718
0.245046
0.244376
0.243709
0.243044
0.24238
0.24172
0.241061
0.240404
0.23975
0.239098
0.238449
0.237801
0.237156
0.236513
0.235872
0.235234
0.234597
0.233964
0.233332
0.232702
0.232075
0.23145
0.230827
0.230207
0.229589
0.228973
0.228359
0.227748
0.227139
0.226532
0.225928
0.225325
0.224725
0.224128
0.223532
0.222939
0.222348
0.22176
0.221173
0.220589
0.220007
0.219428
0.218851
0.218276
0.217703
0.217133
0.216564
0.215998
0.215435
0.214873
0.214314
0.213757
0.213202
0.21265
0.2121
0.211552
0.211006
0.210462
0.209921
0.209381
0.208844
0.208309
0.207777
0.207246
0.206718
0.206191
0.205667
0.205145
0.204625
0.204107
0.203591
0.203077
0.202565
0.202055
0.201548
0.201042
0.200538
0.200036
0.199536
0.199038
0.198542
0.198047
0.197555
0.197064
0.196575
0.196088
0.195603
0.195119
0.194637
0.194157
0.193678
0.193201
0.192726
0.192252
0.19178
0.191309
0.190839
0.190371
0.189904
0.189438
0.188974
0.188511
0.188049
0.187588
0.187129
0.18667
0.186212
0.185755
0.185299
0.184844
0.18439
0.183936
0.183483
0.18303
0.182578
0.182126
0.181675
0.181224
0.180773
0.180322
0.179871
0.179421
0.17897
0.178519
0.178067
0.177616
0.177164
0.176711
0.176258
0.175804
0.175349
0.174894
0.174437
0.173979
0.173521
0.173061
0.172599
0.172137
0.171673
0.171207
0.170739
0.17027
0.169799
0.169326
0.168851
0.168373
0.167894
0.167412
0.166928
0.166442
0.165953
0.165461
0.164967
0.16447
0.16397
0.163467
0.162962
0.162453
0.161942
0.161427
0.16091
0.160389
0.159865
0.159338
0.158808
0.158274
0.157738
0.157198
0.156655
0.156109
0.15556
0.155008
0.154453
0.153895
0.153334
0.15277
0.152204
0.151635
0.151064
0.15049
0.149915
0.149337
0.148758
0.148177
0.147595
0.147011
0.146427
0.145843
0.145258
0.144673
0.144088
0.143505
0.142922
0.142341
0.141761
0.141184
0.140609
0.140038
0.13947
0.138906
0.138347
0.137793
0.137244
0.136701
0.136165
0.135636
0.135114
0.1346
0.134095
0.1336
0.133117
0.132661
0.132294
0.206917
0.20727
0.207705
0.208235
0.208879
0.209666
0.210621
0.211767
0.213122
0.214698
0.2165
0.218525
0.220766
0.223207
0.225831
0.228614
0.231533
0.234562
0.237676
0.24085
0.244061
0.247286
0.250505
0.253702
0.25686
0.259966
0.263009
0.265978
0.268865
0.271665
0.274372
0.276983
0.279495
0.281905
0.284214
0.286421
0.288527
0.290531
0.292437
0.294244
0.295956
0.297574
0.299101
0.300539
0.301891
0.303159
0.304345
0.305453
0.306486
0.307445
0.308333
0.309154
0.309908
0.3106
0.311232
0.311804
0.312321
0.312784
0.313195
0.313557
0.313871
0.314139
0.314364
0.314546
0.314688
0.314792
0.314858
0.314889
0.314886
0.31485
0.314782
0.314685
0.31456
0.314406
0.314227
0.314022
0.313793
0.313541
0.313266
0.312971
0.312655