/*--------------------------------*- C++ -*----------------------------------*\
| =========                 |                                                 |
| \\      /  F ield         | OpenFOAM: The Open Source CFD Toolbox           |
|  \\    /   O peration     | Version:  2506                                  |
|   \\  /    A nd           | Website:  www.openfoam.com                      |
|    \\/     M anipulation  |                                                 |
\*---------------------------------------------------------------------------*/
FoamFile
{
    version     2.0;
    format      ascii;
    arch        "LSB;label=32;scalar=64";
    class       volScalarField;
    location    "400";
    object      k;
}
// * * * * * * * * * * * * * * * * * * * * * * * * * * * * * * * * * * * * * //

dimensions      [0 2 -2 0 0 0 0];

internalField   nonuniform List<scalar> 
131949
(
0.559553
0.61061
0.612364
0.607641
0.603741
0.600654
0.598024
0.595764
0.593796
0.592035
0.590425
0.588929
0.587519
0.586177
0.584888
0.583642
0.582432
0.581251
0.580094
0.578958
0.57784
0.576737
0.575648
0.57457
0.573503
0.572446
0.571397
0.570356
0.569321
0.568294
0.567272
0.566256
0.565246
0.56424
0.56324
0.562243
0.561252
0.560264
0.55928
0.558301
0.557325
0.556352
0.555384
0.554419
0.553457
0.552498
0.551543
0.550591
0.549643
0.548697
0.547755
0.546815
0.545879
0.544946
0.544015
0.543088
0.542163
0.541242
0.540323
0.539407
0.538494
0.537584
0.536677
0.535772
0.53487
0.533971
0.533075
0.532181
0.53129
0.530402
0.529517
0.528634
0.527754
0.526876
0.526001
0.525129
0.524259
0.523392
0.522528
0.521666
0.520807
0.51995
0.519096
0.518245
0.517396
0.51655
0.515706
0.514864
0.514025
0.513189
0.512355
0.511524
0.510695
0.509868
0.509044
0.508223
0.507404
0.506587
0.505773
0.504961
0.504151
0.503344
0.50254
0.501737
0.500937
0.50014
0.499344
0.498551
0.497761
0.496973
0.496187
0.495403
0.494622
0.493843
0.493066
0.492291
0.491519
0.490749
0.489981
0.489216
0.488453
0.487692
0.486933
0.486176
0.485422
0.484669
0.483919
0.483171
0.482426
0.481682
0.480941
0.480202
0.479464
0.478729
0.477996
0.477266
0.476537
0.47581
0.475086
0.474363
0.473643
0.472925
0.472208
0.471494
0.470782
0.470072
0.469363
0.468657
0.467953
0.467251
0.466551
0.465852
0.465156
0.464462
0.463769
0.463079
0.46239
0.461704
0.461019
0.460336
0.459656
0.458977
0.458299
0.457624
0.456951
0.456279
0.45561
0.454942
0.454276
0.453612
0.452949
0.452289
0.45163
0.450973
0.450318
0.449665
0.449013
0.448363
0.447715
0.447069
0.446425
0.445782
0.445141
0.444502
0.443865
0.443229
0.442595
0.441963
0.441333
0.440704
0.440077
0.439452
0.438829
0.438207
0.437587
0.436969
0.436352
0.435738
0.435125
0.434514
0.433904
0.433297
0.432691
0.432087
0.431484
0.430884
0.430285
0.429688
0.429093
0.428499
0.427908
0.427318
0.42673
0.426143
0.425559
0.424976
0.424395
0.423816
0.423238
0.422663
0.422089
0.421517
0.420946
0.420378
0.419811
0.419246
0.418683
0.418122
0.417562
0.417005
0.416449
0.415894
0.415342
0.414791
0.414242
0.413695
0.413149
0.412605
0.412063
0.411523
0.410984
0.410447
0.409911
0.409377
0.408845
0.408314
0.407785
0.407258
0.406732
0.406207
0.405684
0.405163
0.404643
0.404124
0.403607
0.403091
0.402576
0.402063
0.401551
0.40104
0.40053
0.400022
0.399514
0.399008
0.398503
0.397998
0.397495
0.396992
0.39649
0.395989
0.395488
0.394988
0.394488
0.393989
0.393491
0.392992
0.392494
0.391996
0.391497
0.390999
0.3905
0.390001
0.389502
0.389002
0.388501
0.388
0.387497
0.386994
0.386489
0.385982
0.385475
0.384965
0.384454
0.38394
0.383424
0.382906
0.382385
0.381861
0.381335
0.380805
0.380271
0.379734
0.379193
0.378648
0.378099
0.377545
0.376987
0.376424
0.375855
0.375281
0.374702
0.374117
0.373525
0.372928
0.372324
0.371713
0.371096
0.370471
0.36984
0.369201
0.368554
0.367899
0.367237
0.366566
0.365888
0.365201
0.364505
0.363801
0.363089
0.362368
0.361638
0.360899
0.360151
0.359394
0.358629
0.357855
0.357072
0.35628
0.355479
0.35467
0.353853
0.353027
0.352193
0.35135
0.350501
0.349643
0.348778
0.347906
0.347027
0.346142
0.345251
0.344354
0.343451
0.342544
0.341632
0.340715
0.339796
0.338873
0.337947
0.33702
0.336091
0.335162
0.334233
0.333304
0.332376
0.331451
0.330529
0.32961
0.328695
0.327786
0.326883
0.325987
0.325099
0.32422
0.323351
0.322492
0.321645
0.320811
0.319991
0.319185
0.318394
0.31762
0.316864
0.316126
0.315407
0.314709
0.314031
0.313375
0.312741
0.312131
0.311544
0.310981
0.310443
0.30993
0.309441
0.308978
0.308541
0.30813
0.30776
0.307455
0.437505
0.49331
0.531808
0.554333
0.5678
0.5758
0.580298
0.582716
0.583925
0.584396
0.5844
0.584102
0.583604
0.582971
0.582242
0.581447
0.580603
0.579724
0.578818
0.577893
0.576954
0.576004
0.575045
0.574081
0.573112
0.572141
0.571167
0.570192
0.569217
0.568241
0.567266
0.566292
0.565318
0.564346
0.563375
0.562406
0.561439
0.560473
0.55951
0.558548
0.557589
0.556632
0.555677
0.554725
0.553774
0.552826
0.551881
0.550938
0.549997
0.549059
0.548124
0.54719
0.54626
0.545332
0.544406
0.543483
0.542563
0.541645
0.54073
0.539817
0.538907
0.537999
0.537094
0.536191
0.535291
0.534394
0.533499
0.532607
0.531717
0.53083
0.529946
0.529064
0.528184
0.527308
0.526433
0.525561
0.524692
0.523825
0.522961
0.5221
0.52124
0.520384
0.51953
0.518678
0.517829
0.516982
0.516138
0.515296
0.514457
0.51362
0.512786
0.511954
0.511124
0.510297
0.509473
0.50865
0.507831
0.507013
0.506198
0.505386
0.504575
0.503767
0.502962
0.502159
0.501358
0.50056
0.499763
0.49897
0.498178
0.497389
0.496602
0.495818
0.495035
0.494255
0.493478
0.492702
0.491929
0.491158
0.490389
0.489623
0.488859
0.488096
0.487337
0.486579
0.485824
0.48507
0.484319
0.48357
0.482824
0.482079
0.481336
0.480596
0.479858
0.479122
0.478388
0.477656
0.476926
0.476199
0.475473
0.474749
0.474028
0.473309
0.472591
0.471876
0.471163
0.470451
0.469742
0.469035
0.46833
0.467626
0.466925
0.466226
0.465529
0.464833
0.46414
0.463448
0.462759
0.462071
0.461385
0.460701
0.46002
0.459339
0.458661
0.457985
0.457311
0.456638
0.455967
0.455298
0.454631
0.453966
0.453303
0.452641
0.451982
0.451324
0.450667
0.450013
0.449361
0.44871
0.448061
0.447414
0.446768
0.446124
0.445483
0.444842
0.444204
0.443567
0.442932
0.442299
0.441668
0.441038
0.440411
0.439784
0.43916
0.438537
0.437917
0.437298
0.43668
0.436065
0.435451
0.434839
0.434228
0.43362
0.433013
0.432408
0.431805
0.431203
0.430604
0.430006
0.42941
0.428815
0.428223
0.427632
0.427043
0.426456
0.42587
0.425287
0.424705
0.424125
0.423547
0.42297
0.422396
0.421823
0.421252
0.420683
0.420115
0.41955
0.418986
0.418424
0.417863
0.417305
0.416748
0.416193
0.41564
0.415088
0.414539
0.413991
0.413444
0.4129
0.412357
0.411816
0.411276
0.410738
0.410202
0.409668
0.409135
0.408603
0.408074
0.407545
0.407019
0.406494
0.40597
0.405448
0.404927
0.404408
0.40389
0.403373
0.402858
0.402344
0.401831
0.401319
0.400809
0.4003
0.399792
0.399284
0.398778
0.398273
0.397769
0.397265
0.396762
0.39626
0.395759
0.395258
0.394758
0.394258
0.393758
0.393259
0.392759
0.39226
0.391761
0.391261
0.390762
0.390261
0.389761
0.38926
0.388758
0.388255
0.387751
0.387246
0.38674
0.386232
0.385723
0.385212
0.384698
0.384183
0.383666
0.383146
0.382623
0.382097
0.381568
0.381036
0.380501
0.379961
0.379418
0.378871
0.378319
0.377763
0.377202
0.376636
0.376065
0.375488
0.374905
0.374317
0.373723
0.373122
0.372514
0.3719
0.371279
0.370651
0.370016
0.369373
0.368722
0.368064
0.367397
0.366722
0.366039
0.365348
0.364648
0.36394
0.363223
0.362497
0.361762
0.361018
0.360265
0.359504
0.358733
0.357954
0.357165
0.356368
0.355562
0.354748
0.353925
0.353093
0.352254
0.351406
0.350551
0.349687
0.348817
0.347939
0.347055
0.346163
0.345266
0.344363
0.343455
0.342541
0.341623
0.340701
0.339776
0.338847
0.337916
0.336983
0.336048
0.335113
0.334178
0.333244
0.332311
0.33138
0.330452
0.329528
0.328608
0.327694
0.326786
0.325885
0.324992
0.324109
0.323235
0.322372
0.321521
0.320683
0.319858
0.319049
0.318255
0.317478
0.316718
0.315977
0.315256
0.314555
0.313875
0.313217
0.312582
0.31197
0.311382
0.310818
0.310279
0.309764
0.309275
0.308812
0.308374
0.307963
0.307593
0.30729
0.398944
0.430836
0.461659
0.487593
0.508598
0.525144
0.537751
0.547198
0.554251
0.559501
0.56339
0.566255
0.568343
0.569837
0.570874
0.571553
0.571951
0.572125
0.572119
0.571968
0.571697
0.571329
0.570879
0.570362
0.569788
0.569166
0.568504
0.567807
0.567081
0.56633
0.565557
0.564765
0.563958
0.563136
0.562303
0.561459
0.560607
0.559747
0.55888
0.558008
0.557131
0.55625
0.555365
0.554478
0.553588
0.552696
0.551803
0.550908
0.550013
0.549117
0.548221
0.547324
0.546428
0.545532
0.544637
0.543742
0.542849
0.541956
0.541064
0.540173
0.539284
0.538396
0.537509
0.536624
0.53574
0.534858
0.533978
0.5331
0.532223
0.531348
0.530475
0.529604
0.528735
0.527868
0.527003
0.526139
0.525278
0.524419
0.523563
0.522708
0.521855
0.521005
0.520156
0.51931
0.518466
0.517624
0.516785
0.515947
0.515112
0.514279
0.513448
0.51262
0.511793
0.510969
0.510148
0.509328
0.508511
0.507696
0.506883
0.506072
0.505264
0.504457
0.503653
0.502852
0.502052
0.501255
0.50046
0.499667
0.498877
0.498088
0.497302
0.496518
0.495736
0.494957
0.494179
0.493404
0.492631
0.49186
0.491092
0.490325
0.489561
0.488799
0.488039
0.487281
0.486525
0.485772
0.48502
0.484271
0.483524
0.482779
0.482036
0.481295
0.480556
0.479819
0.479085
0.478352
0.477621
0.476893
0.476167
0.475442
0.47472
0.474
0.473281
0.472565
0.471851
0.471139
0.470428
0.46972
0.469014
0.46831
0.467607
0.466907
0.466208
0.465512
0.464817
0.464125
0.463434
0.462745
0.462058
0.461373
0.46069
0.460009
0.459329
0.458652
0.457976
0.457302
0.45663
0.45596
0.455291
0.454625
0.45396
0.453297
0.452636
0.451977
0.451319
0.450664
0.45001
0.449358
0.448707
0.448059
0.447412
0.446767
0.446124
0.445482
0.444842
0.444204
0.443568
0.442933
0.442301
0.44167
0.44104
0.440413
0.439787
0.439163
0.438541
0.43792
0.437302
0.436685
0.436069
0.435456
0.434844
0.434234
0.433626
0.43302
0.432415
0.431812
0.431211
0.430612
0.430014
0.429419
0.428825
0.428233
0.427642
0.427054
0.426467
0.425882
0.425299
0.424717
0.424138
0.42356
0.422984
0.42241
0.421838
0.421267
0.420699
0.420132
0.419566
0.419003
0.418442
0.417882
0.417324
0.416767
0.416213
0.41566
0.415109
0.41456
0.414013
0.413467
0.412923
0.41238
0.41184
0.411301
0.410763
0.410227
0.409693
0.409161
0.40863
0.4081
0.407573
0.407046
0.406521
0.405998
0.405476
0.404956
0.404437
0.403919
0.403402
0.402887
0.402373
0.40186
0.401349
0.400839
0.400329
0.399821
0.399313
0.398807
0.398302
0.397797
0.397293
0.39679
0.396287
0.395785
0.395283
0.394782
0.394281
0.39378
0.393279
0.392779
0.392278
0.391777
0.391276
0.390775
0.390273
0.38977
0.389266
0.388762
0.388257
0.38775
0.387242
0.386733
0.386221
0.385708
0.385193
0.384676
0.384157
0.383635
0.38311
0.382582
0.382051
0.381517
0.380979
0.380437
0.379891
0.379341
0.378787
0.378228
0.377664
0.377095
0.376521
0.375941
0.375356
0.374764
0.374167
0.373562
0.372952
0.372334
0.371709
0.371078
0.370438
0.369791
0.369137
0.368474
0.367803
0.367124
0.366437
0.365741
0.365036
0.364323
0.363601
0.36287
0.36213
0.361381
0.360623
0.359856
0.359079
0.358294
0.3575
0.356697
0.355885
0.355064
0.354234
0.353396
0.35255
0.351695
0.350832
0.349962
0.349084
0.348198
0.347306
0.346407
0.345501
0.34459
0.343673
0.342751
0.341824
0.340893
0.339958
0.339019
0.338078
0.337135
0.336191
0.335245
0.334299
0.333354
0.33241
0.331468
0.330528
0.329592
0.32866
0.327733
0.326813
0.325899
0.324993
0.324096
0.323208
0.322331
0.321466
0.320613
0.319774
0.31895
0.318141
0.317348
0.316573
0.315817
0.315079
0.314362
0.313666
0.312991
0.312339
0.31171
0.311105
0.310524
0.309968
0.309437
0.308931
0.30845
0.307995
0.307568
0.307183
0.30687
0.384717
0.399671
0.417137
0.435561
0.453684
0.470604
0.485712
0.498799
0.509932
0.519296
0.527109
0.533596
0.538964
0.543397
0.547047
0.550046
0.5525
0.554497
0.55611
0.557398
0.558412
0.559191
0.559769
0.560176
0.560434
0.560563
0.560581
0.560502
0.560338
0.560098
0.559794
0.559431
0.559017
0.558557
0.558057
0.557521
0.556953
0.556356
0.555733
0.555088
0.554421
0.553736
0.553035
0.552318
0.551588
0.550846
0.550093
0.54933
0.548558
0.547778
0.546991
0.546198
0.545398
0.544594
0.543785
0.542972
0.542155
0.541335
0.540513
0.539687
0.53886
0.538031
0.5372
0.536368
0.535535
0.534701
0.533867
0.533032
0.532196
0.531361
0.530526
0.52969
0.528855
0.528021
0.527187
0.526354
0.525521
0.524689
0.523858
0.523028
0.522199
0.521372
0.520545
0.51972
0.518896
0.518073
0.517252
0.516432
0.515613
0.514797
0.513981
0.513167
0.512355
0.511545
0.510736
0.509929
0.509124
0.50832
0.507518
0.506718
0.50592
0.505124
0.504329
0.503536
0.502745
0.501956
0.501169
0.500384
0.499601
0.498819
0.49804
0.497262
0.496487
0.495713
0.494941
0.494171
0.493404
0.492638
0.491874
0.491112
0.490352
0.489594
0.488838
0.488084
0.487332
0.486582
0.485833
0.485087
0.484343
0.483601
0.48286
0.482122
0.481386
0.480651
0.479919
0.479188
0.47846
0.477733
0.477008
0.476286
0.475565
0.474846
0.474129
0.473414
0.472701
0.47199
0.471281
0.470573
0.469868
0.469164
0.468463
0.467763
0.467065
0.466369
0.465675
0.464982
0.464292
0.463603
0.462917
0.462232
0.461549
0.460867
0.460188
0.45951
0.458834
0.45816
0.457488
0.456818
0.456149
0.455482
0.454817
0.454154
0.453492
0.452833
0.452175
0.451518
0.450864
0.450211
0.44956
0.448911
0.448263
0.447617
0.446973
0.446331
0.44569
0.445052
0.444414
0.443779
0.443145
0.442513
0.441883
0.441255
0.440628
0.440003
0.43938
0.438758
0.438138
0.43752
0.436904
0.43629
0.435677
0.435066
0.434456
0.433849
0.433243
0.432639
0.432037
0.431436
0.430838
0.430241
0.429646
0.429052
0.428461
0.427871
0.427283
0.426697
0.426112
0.42553
0.424949
0.42437
0.423793
0.423218
0.422644
0.422072
0.421502
0.420934
0.420368
0.419803
0.41924
0.418679
0.41812
0.417562
0.417007
0.416453
0.4159
0.41535
0.414801
0.414254
0.413709
0.413165
0.412623
0.412083
0.411544
0.411007
0.410472
0.409938
0.409406
0.408875
0.408346
0.407818
0.407292
0.406768
0.406245
0.405723
0.405202
0.404683
0.404166
0.403649
0.403134
0.40262
0.402107
0.401596
0.401085
0.400575
0.400067
0.399559
0.399052
0.398546
0.398041
0.397536
0.397032
0.396529
0.396026
0.395523
0.395021
0.394519
0.394017
0.393515
0.393013
0.39251
0.392008
0.391505
0.391001
0.390497
0.389992
0.389486
0.388979
0.388471
0.387961
0.38745
0.386937
0.386422
0.385905
0.385386
0.384865
0.384341
0.383814
0.383284
0.382751
0.382215
0.381674
0.38113
0.380583
0.38003
0.379474
0.378912
0.378346
0.377774
0.377197
0.376615
0.376026
0.375432
0.374831
0.374224
0.37361
0.372989
0.372361
0.371725
0.371082
0.370432
0.369773
0.369107
0.368432
0.367749
0.367057
0.366357
0.365648
0.36493
0.364203
0.363467
0.362722
0.361967
0.361204
0.360431
0.359649
0.358858
0.358058
0.357248
0.35643
0.355602
0.354766
0.35392
0.353067
0.352204
0.351334
0.350455
0.349568
0.348674
0.347773
0.346865
0.34595
0.345028
0.344101
0.343168
0.34223
0.341288
0.340341
0.33939
0.338437
0.337481
0.336523
0.335563
0.334603
0.333643
0.332683
0.331725
0.330769
0.329816
0.328867
0.327922
0.326983
0.32605
0.325124
0.324207
0.323299
0.3224
0.321513
0.320638
0.319775
0.318927
0.318094
0.317276
0.316476
0.315693
0.314929
0.314184
0.31346
0.312758
0.312077
0.311419
0.310784
0.310174
0.309587
0.309025
0.308489
0.307978
0.307492
0.307035
0.306622
0.306291
0.379451
0.386516
0.395429
0.405971
0.417679
0.430002
0.442376
0.454339
0.465591
0.475962
0.485373
0.493817
0.501331
0.507978
0.513831
0.518968
0.523465
0.527393
0.530816
0.533794
0.536378
0.538614
0.540542
0.542198
0.543612
0.544811
0.54582
0.546658
0.547345
0.547895
0.548324
0.548643
0.548863
0.548995
0.549047
0.549025
0.548939
0.548792
0.548591
0.548341
0.548046
0.54771
0.547336
0.546928
0.546489
0.546021
0.545526
0.545008
0.544467
0.543906
0.543326
0.542728
0.542115
0.541487
0.540846
0.540192
0.539527
0.538851
0.538165
0.53747
0.536767
0.536057
0.53534
0.534616
0.533886
0.533151
0.53241
0.531666
0.530917
0.530164
0.529408
0.528648
0.527886
0.527121
0.526354
0.525585
0.524814
0.524042
0.523268
0.522492
0.521716
0.520939
0.520161
0.519382
0.518603
0.517824
0.517044
0.516265
0.515485
0.514706
0.513926
0.513147
0.512369
0.51159
0.510813
0.510036
0.509259
0.508484
0.507709
0.506935
0.506162
0.50539
0.504619
0.503849
0.50308
0.502312
0.501546
0.50078
0.500016
0.499253
0.498492
0.497732
0.496973
0.496215
0.495459
0.494705
0.493952
0.4932
0.49245
0.491701
0.490954
0.490209
0.489465
0.488722
0.487982
0.487242
0.486505
0.485769
0.485035
0.484302
0.483571
0.482842
0.482114
0.481388
0.480664
0.479941
0.47922
0.478501
0.477784
0.477068
0.476354
0.475641
0.474931
0.474222
0.473514
0.472809
0.472105
0.471403
0.470703
0.470004
0.469307
0.468612
0.467919
0.467227
0.466537
0.465849
0.465162
0.464477
0.463794
0.463112
0.462433
0.461755
0.461078
0.460404
0.459731
0.459059
0.45839
0.457722
0.457056
0.456391
0.455728
0.455067
0.454408
0.45375
0.453094
0.452439
0.451786
0.451135
0.450486
0.449838
0.449192
0.448547
0.447904
0.447263
0.446624
0.445986
0.44535
0.444715
0.444082
0.443451
0.442822
0.442194
0.441568
0.440943
0.440321
0.4397
0.43908
0.438463
0.437847
0.437232
0.43662
0.436009
0.4354
0.434792
0.434187
0.433583
0.432981
0.43238
0.431781
0.431184
0.430589
0.429996
0.429404
0.428814
0.428226
0.427639
0.427055
0.426472
0.42589
0.425311
0.424734
0.424158
0.423584
0.423011
0.422441
0.421872
0.421305
0.42074
0.420177
0.419615
0.419055
0.418497
0.417941
0.417386
0.416833
0.416282
0.415733
0.415185
0.414639
0.414095
0.413552
0.413011
0.412472
0.411934
0.411398
0.410863
0.410331
0.409799
0.409269
0.408741
0.408214
0.407689
0.407165
0.406642
0.406121
0.405601
0.405083
0.404565
0.404049
0.403535
0.403021
0.402508
0.401997
0.401486
0.400977
0.400468
0.399961
0.399454
0.398947
0.398442
0.397937
0.397432
0.396928
0.396425
0.395922
0.395418
0.394915
0.394412
0.393909
0.393406
0.392902
0.392398
0.391893
0.391388
0.390882
0.390374
0.389866
0.389357
0.388846
0.388333
0.387819
0.387303
0.386785
0.386264
0.385741
0.385216
0.384687
0.384156
0.383621
0.383083
0.382541
0.381995
0.381446
0.380892
0.380333
0.379769
0.379201
0.378627
0.378048
0.377464
0.376873
0.376276
0.375673
0.375063
0.374447
0.373823
0.373192
0.372554
0.371908
0.371255
0.370593
0.369923
0.369245
0.368558
0.367863
0.367159
0.366446
0.365724
0.364993
0.364253
0.363503
0.362744
0.361976
0.361198
0.360411
0.359615
0.358809
0.357993
0.357168
0.356334
0.355491
0.354639
0.353778
0.352908
0.35203
0.351143
0.350248
0.349345
0.348434
0.347516
0.346591
0.345659
0.34472
0.343776
0.342826
0.341871
0.340911
0.339947
0.338979
0.338009
0.337035
0.33606
0.335083
0.334105
0.333128
0.332151
0.331176
0.330202
0.329232
0.328266
0.327304
0.326348
0.325398
0.324455
0.323521
0.322596
0.321681
0.320777
0.319885
0.319006
0.318142
0.317292
0.316458
0.315642
0.314843
0.314063
0.313303
0.312563
0.311844
0.311148
0.310474
0.309823
0.309197
0.308594
0.308017
0.307464
0.306937
0.306439
0.305988
0.305631
0.377291
0.380856
0.385399
0.391002
0.397648
0.405208
0.413459
0.422131
0.430967
0.439748
0.448298
0.456488
0.46423
0.471475
0.4782
0.484401
0.49009
0.495288
0.500022
0.504322
0.508218
0.511741
0.51492
0.517785
0.520361
0.522672
0.524743
0.526592
0.52824
0.529704
0.530998
0.532139
0.533137
0.534007
0.534757
0.535398
0.535939
0.536387
0.53675
0.537035
0.537247
0.537393
0.537477
0.537503
0.537477
0.537402
0.537282
0.537119
0.536917
0.536679
0.536407
0.536103
0.535771
0.53541
0.535025
0.534615
0.534183
0.533731
0.533259
0.532769
0.532263
0.53174
0.531203
0.530652
0.530088
0.529512
0.528925
0.528327
0.527719
0.527102
0.526476
0.525843
0.525201
0.524553
0.523898
0.523237
0.52257
0.521897
0.52122
0.520538
0.519852
0.519161
0.518467
0.517769
0.517069
0.516365
0.515658
0.514949
0.514238
0.513524
0.512809
0.512091
0.511372
0.510652
0.50993
0.509208
0.508484
0.507759
0.507033
0.506307
0.505581
0.504853
0.504126
0.503398
0.50267
0.501942
0.501214
0.500486
0.499758
0.499031
0.498303
0.497576
0.49685
0.496124
0.495398
0.494673
0.493949
0.493225
0.492502
0.49178
0.491058
0.490337
0.489618
0.488899
0.488181
0.487464
0.486748
0.486033
0.485319
0.484607
0.483895
0.483185
0.482475
0.481767
0.48106
0.480354
0.47965
0.478947
0.478245
0.477544
0.476845
0.476147
0.47545
0.474755
0.474061
0.473368
0.472677
0.471987
0.471299
0.470612
0.469926
0.469242
0.468559
0.467878
0.467198
0.46652
0.465843
0.465167
0.464493
0.463821
0.463149
0.46248
0.461812
0.461145
0.46048
0.459816
0.459154
0.458493
0.457834
0.457176
0.45652
0.455865
0.455212
0.45456
0.45391
0.453261
0.452614
0.451968
0.451324
0.450681
0.45004
0.449401
0.448763
0.448126
0.447491
0.446858
0.446226
0.445595
0.444967
0.444339
0.443714
0.443089
0.442467
0.441846
0.441226
0.440609
0.439992
0.439378
0.438765
0.438153
0.437543
0.436935
0.436329
0.435724
0.435121
0.434519
0.433919
0.433321
0.432724
0.432129
0.431536
0.430944
0.430354
0.429766
0.42918
0.428595
0.428012
0.427431
0.426851
0.426273
0.425697
0.425122
0.42455
0.423979
0.423409
0.422842
0.422276
0.421712
0.42115
0.420589
0.42003
0.419473
0.418917
0.418364
0.417811
0.417261
0.416712
0.416165
0.41562
0.415076
0.414534
0.413994
0.413455
0.412918
0.412382
0.411848
0.411315
0.410784
0.410255
0.409727
0.4092
0.408675
0.408152
0.407629
0.407109
0.406589
0.406071
0.405553
0.405038
0.404523
0.404009
0.403497
0.402986
0.402475
0.401966
0.401457
0.400949
0.400442
0.399936
0.399431
0.398926
0.398421
0.397917
0.397413
0.39691
0.396406
0.395903
0.3954
0.394897
0.394393
0.393889
0.393385
0.39288
0.392374
0.391867
0.39136
0.390851
0.390341
0.38983
0.389317
0.388802
0.388286
0.387767
0.387246
0.386722
0.386196
0.385667
0.385135
0.384599
0.38406
0.383518
0.382971
0.382421
0.381866
0.381306
0.380742
0.380172
0.379598
0.379017
0.378431
0.377839
0.377241
0.376637
0.376026
0.375408
0.374783
0.37415
0.37351
0.372863
0.372207
0.371543
0.370872
0.370191
0.369502
0.368805
0.368098
0.367382
0.366658
0.365924
0.36518
0.364427
0.363665
0.362893
0.362111
0.36132
0.360519
0.359708
0.358888
0.358058
0.357219
0.35637
0.355512
0.354644
0.353767
0.352882
0.351987
0.351084
0.350173
0.349254
0.348326
0.347391
0.346449
0.3455
0.344544
0.343582
0.342615
0.341642
0.340664
0.339682
0.338696
0.337706
0.336714
0.33572
0.334724
0.333727
0.33273
0.331734
0.330738
0.329745
0.328755
0.327768
0.326786
0.32581
0.324839
0.323876
0.32292
0.321974
0.321038
0.320113
0.319199
0.318299
0.317412
0.31654
0.315684
0.314845
0.314024
0.313221
0.312438
0.311675
0.310933
0.310213
0.309516
0.308841
0.308191
0.307564
0.306962
0.306386
0.305839
0.305342
0.304954
0.37629
0.378227
0.380644
0.383627
0.387247
0.391535
0.396464
0.401952
0.407892
0.414159
0.420629
0.427181
0.433713
0.440138
0.446386
0.452407
0.458163
0.463631
0.468798
0.473657
0.478211
0.482465
0.486427
0.490109
0.493524
0.496685
0.499606
0.5023
0.504782
0.507064
0.509159
0.511079
0.512836
0.51444
0.515901
0.517229
0.518432
0.519519
0.520497
0.521374
0.522157
0.52285
0.523461
0.523994
0.524454
0.524847
0.525176
0.525445
0.525658
0.525818
0.52593
0.525995
0.526016
0.525997
0.525939
0.525845
0.525717
0.525557
0.525366
0.525147
0.524902
0.524631
0.524336
0.524018
0.52368
0.523321
0.522943
0.522548
0.522135
0.521707
0.521263
0.520806
0.520334
0.51985
0.519354
0.518846
0.518328
0.517799
0.517261
0.516714
0.516157
0.515593
0.515021
0.514442
0.513856
0.513263
0.512665
0.51206
0.51145
0.510835
0.510215
0.50959
0.508961
0.508328
0.507691
0.50705
0.506406
0.505759
0.505109
0.504456
0.5038
0.503142
0.502482
0.50182
0.501155
0.500489
0.499821
0.499152
0.498481
0.497809
0.497136
0.496461
0.495786
0.49511
0.494433
0.493755
0.493076
0.492398
0.491718
0.491039
0.490359
0.489679
0.488998
0.488318
0.487637
0.486957
0.486277
0.485597
0.484917
0.484237
0.483558
0.482879
0.4822
0.481522
0.480844
0.480167
0.479491
0.478815
0.478139
0.477465
0.476791
0.476117
0.475445
0.474773
0.474102
0.473432
0.472763
0.472095
0.471427
0.470761
0.470095
0.46943
0.468767
0.468104
0.467442
0.466782
0.466122
0.465464
0.464806
0.46415
0.463495
0.462841
0.462188
0.461536
0.460885
0.460236
0.459588
0.45894
0.458295
0.45765
0.457006
0.456364
0.455723
0.455083
0.454444
0.453807
0.453171
0.452536
0.451902
0.45127
0.450639
0.45001
0.449381
0.448754
0.448128
0.447504
0.446881
0.446259
0.445639
0.44502
0.444402
0.443786
0.443171
0.442558
0.441946
0.441335
0.440726
0.440118
0.439512
0.438907
0.438304
0.437702
0.437102
0.436503
0.435906
0.43531
0.434716
0.434123
0.433532
0.432942
0.432354
0.431767
0.431182
0.430599
0.430017
0.429437
0.428858
0.428281
0.427706
0.427132
0.42656
0.42599
0.425421
0.424854
0.424288
0.423725
0.423162
0.422602
0.422043
0.421485
0.42093
0.420376
0.419824
0.419273
0.418724
0.418176
0.41763
0.417086
0.416544
0.416003
0.415463
0.414925
0.414389
0.413854
0.413321
0.412789
0.412259
0.41173
0.411203
0.410677
0.410153
0.40963
0.409108
0.408588
0.408069
0.407551
0.407035
0.40652
0.406005
0.405493
0.404981
0.40447
0.40396
0.403451
0.402944
0.402436
0.40193
0.401425
0.40092
0.400416
0.399912
0.399409
0.398906
0.398404
0.397902
0.397399
0.396897
0.396395
0.395893
0.395391
0.394888
0.394384
0.393881
0.393376
0.39287
0.392364
0.391856
0.391347
0.390836
0.390324
0.38981
0.389295
0.388777
0.388256
0.387734
0.387208
0.38668
0.386148
0.385613
0.385075
0.384533
0.383987
0.383437
0.382883
0.382323
0.381759
0.38119
0.380616
0.380036
0.37945
0.378859
0.378261
0.377656
0.377045
0.376427
0.375802
0.37517
0.37453
0.373882
0.373226
0.372562
0.37189
0.371209
0.370519
0.369821
0.369113
0.368396
0.36767
0.366935
0.36619
0.365436
0.364671
0.363897
0.363113
0.36232
0.361516
0.360702
0.359879
0.359045
0.358202
0.357349
0.356486
0.355614
0.354732
0.353841
0.352941
0.352031
0.351113
0.350186
0.349251
0.348308
0.347356
0.346398
0.345432
0.344459
0.34348
0.342494
0.341503
0.340507
0.339507
0.338502
0.337493
0.336482
0.335468
0.334452
0.333435
0.332417
0.3314
0.330384
0.329369
0.328357
0.327348
0.326343
0.325344
0.32435
0.323363
0.322384
0.321413
0.320452
0.319502
0.318563
0.317637
0.316725
0.315827
0.314944
0.314078
0.313229
0.312399
0.311587
0.310796
0.310025
0.309276
0.308549
0.307845
0.307165
0.306508
0.305878
0.305276
0.304727
0.304304
0.375763
0.376876
0.378229
0.37987
0.381853
0.384231
0.387033
0.390263
0.393903
0.397917
0.402252
0.406848
0.411639
0.41656
0.42155
0.426553
0.43152
0.43641
0.44119
0.445833
0.450318
0.45463
0.458761
0.462703
0.466453
0.470013
0.473382
0.476566
0.479567
0.482393
0.485048
0.487539
0.489874
0.492059
0.4941
0.496005
0.49778
0.499431
0.500965
0.502387
0.503705
0.504922
0.506044
0.507076
0.508023
0.50889
0.50968
0.510398
0.511047
0.511631
0.512154
0.512618
0.513027
0.513384
0.513691
0.513951
0.514166
0.514339
0.514471
0.514565
0.514623
0.514646
0.514637
0.514596
0.514526
0.514428
0.514302
0.514152
0.513977
0.513779
0.513559
0.513319
0.513058
0.512778
0.512481
0.512166
0.511835
0.511488
0.511127
0.510751
0.510362
0.50996
0.509545
0.509119
0.508682
0.508234
0.507776
0.507309
0.506832
0.506346
0.505852
0.50535
0.504841
0.504324
0.5038
0.50327
0.502733
0.502191
0.501642
0.501089
0.50053
0.499966
0.499398
0.498825
0.498248
0.497667
0.497082
0.496494
0.495902
0.495307
0.494709
0.494108
0.493504
0.492898
0.492289
0.491678
0.491064
0.490449
0.489832
0.489213
0.488592
0.487969
0.487346
0.48672
0.486094
0.485466
0.484837
0.484207
0.483577
0.482945
0.482313
0.481679
0.481046
0.480412
0.479777
0.479142
0.478506
0.47787
0.477234
0.476598
0.475962
0.475325
0.474689
0.474052
0.473416
0.472779
0.472143
0.471507
0.470872
0.470236
0.469601
0.468966
0.468331
0.467697
0.467064
0.46643
0.465798
0.465165
0.464534
0.463903
0.463272
0.462642
0.462013
0.461384
0.460756
0.460129
0.459503
0.458877
0.458252
0.457628
0.457005
0.456382
0.45576
0.455139
0.454519
0.4539
0.453282
0.452665
0.452049
0.451433
0.450819
0.450205
0.449593
0.448981
0.448371
0.447762
0.447153
0.446546
0.44594
0.445335
0.444731
0.444128
0.443526
0.442926
0.442326
0.441728
0.441131
0.440535
0.439941
0.439347
0.438755
0.438164
0.437575
0.436987
0.4364
0.435814
0.43523
0.434647
0.434065
0.433485
0.432906
0.432329
0.431753
0.431178
0.430605
0.430033
0.429463
0.428894
0.428327
0.427761
0.427197
0.426634
0.426072
0.425512
0.424954
0.424397
0.423842
0.423288
0.422736
0.422185
0.421636
0.421088
0.420542
0.419997
0.419454
0.418913
0.418373
0.417834
0.417297
0.416761
0.416227
0.415695
0.415164
0.414634
0.414106
0.413579
0.413054
0.41253
0.412007
0.411486
0.410966
0.410448
0.409931
0.409415
0.4089
0.408386
0.407874
0.407363
0.406853
0.406344
0.405836
0.405329
0.404823
0.404318
0.403814
0.403311
0.402808
0.402306
0.401805
0.401304
0.400804
0.400304
0.399804
0.399305
0.398806
0.398307
0.397808
0.397309
0.39681
0.39631
0.395811
0.39531
0.394809
0.394307
0.393804
0.393301
0.392796
0.392289
0.391781
0.391272
0.390761
0.390248
0.389732
0.389214
0.388694
0.388171
0.387645
0.387116
0.386584
0.386048
0.385508
0.384965
0.384417
0.383865
0.383308
0.382746
0.382179
0.381607
0.381029
0.380446
0.379856
0.37926
0.378658
0.378049
0.377433
0.37681
0.376179
0.375541
0.374895
0.374241
0.373578
0.372908
0.372228
0.37154
0.370843
0.370136
0.369421
0.368696
0.367961
0.367217
0.366463
0.365699
0.364925
0.364141
0.363347
0.362543
0.361728
0.360904
0.360069
0.359224
0.358369
0.357504
0.356629
0.355745
0.35485
0.353946
0.353032
0.352109
0.351177
0.350236
0.349286
0.348327
0.347361
0.346387
0.345405
0.344416
0.34342
0.342418
0.34141
0.340396
0.339378
0.338354
0.337327
0.336296
0.335263
0.334227
0.333189
0.332151
0.331113
0.330074
0.329038
0.328003
0.326971
0.325943
0.324919
0.3239
0.322888
0.321884
0.320887
0.3199
0.318922
0.317956
0.317002
0.31606
0.315133
0.314221
0.313325
0.312445
0.311584
0.310741
0.309918
0.309115
0.308333
0.307573
0.306836
0.306122
0.305433
0.304774
0.30417
0.303709
0.375453
0.376105
0.376886
0.377816
0.378925
0.38025
0.381821
0.383661
0.385784
0.388193
0.39088
0.393828
0.397014
0.400405
0.403969
0.407669
0.411469
0.415334
0.419233
0.423134
0.427013
0.430847
0.434615
0.438302
0.441895
0.445384
0.44876
0.452018
0.455154
0.458165
0.461051
0.46381
0.466446
0.468958
0.471349
0.473621
0.475778
0.477823
0.47976
0.481591
0.48332
0.484952
0.486489
0.487936
0.489295
0.490571
0.491767
0.492886
0.493931
0.494905
0.495812
0.496654
0.497434
0.498154
0.498818
0.499428
0.499986
0.500494
0.500954
0.501369
0.501741
0.502071
0.502361
0.502613
0.502828
0.503009
0.503156
0.503272
0.503356
0.503411
0.503439
0.503439
0.503414
0.503364