/*--------------------------------*- C++ -*----------------------------------*\
| =========                 |                                                 |
| \\      /  F ield         | OpenFOAM: The Open Source CFD Toolbox           |
|  \\    /   O peration     | Version:  2506                                  |
|   \\  /    A nd           | Website:  www.openfoam.com                      |
|    \\/     M anipulation  |                                                 |
\*---------------------------------------------------------------------------*/
FoamFile
{
    version     2.0;
    format      ascii;
    arch        "LSB;label=32;scalar=64";
    class       volScalarField;
    location    "400";
    object      nut;
}
// * * * * * * * * * * * * * * * * * * * * * * * * * * * * * * * * * * * * * //

dimensions      [0 2 -1 0 0 0 0];

internalField   nonuniform List<scalar> 
131949
(
0.0659348
0.068194
0.0682839
0.0682257
0.0682935
0.068426
0.068577
0.0687315
0.0688827
0.0690268
0.0691623
0.0692892
0.069408
0.0695193
0.0696237
0.0697219
0.0698144
0.0699017
0.0699844
0.0700627
0.0701371
0.0702078
0.0702753
0.0703397
0.0704012
0.0704602
0.0705167
0.0705709
0.070623
0.0706731
0.0707214
0.0707679
0.0708128
0.0708562
0.0708981
0.0709387
0.0709779
0.071016
0.0710529
0.0710887
0.0711234
0.0711572
0.07119
0.0712219
0.071253
0.0712832
0.0713127
0.0713414
0.0713694
0.0713967
0.0714234
0.0714494
0.0714748
0.0714997
0.0715239
0.0715477
0.0715709
0.0715937
0.0716159
0.0716377
0.071659
0.0716799
0.0717004
0.0717205
0.0717402
0.0717595
0.0717785
0.0717971
0.0718153
0.0718333
0.0718509
0.0718682
0.0718851
0.0719018
0.0719182
0.0719344
0.0719502
0.0719658
0.0719811
0.0719962
0.0720111
0.0720257
0.07204
0.0720542
0.0720681
0.0720818
0.0720953
0.0721086
0.0721217
0.0721346
0.0721473
0.0721599
0.0721722
0.0721844
0.0721964
0.0722082
0.0722199
0.0722314
0.0722427
0.0722539
0.0722649
0.0722758
0.0722865
0.0722971
0.0723076
0.0723179
0.072328
0.0723381
0.072348
0.0723577
0.0723674
0.0723769
0.0723863
0.0723956
0.0724047
0.0724138
0.0724227
0.0724315
0.0724403
0.0724488
0.0724573
0.0724657
0.072474
0.0724822
0.0724903
0.0724982
0.0725061
0.0725139
0.0725216
0.0725292
0.0725367
0.0725441
0.0725514
0.0725586
0.0725658
0.0725728
0.0725798
0.0725867
0.0725935
0.0726002
0.0726068
0.0726134
0.0726199
0.0726262
0.0726326
0.0726388
0.0726449
0.072651
0.072657
0.0726629
0.0726688
0.0726745
0.0726802
0.0726858
0.0726914
0.0726969
0.0727023
0.0727076
0.0727128
0.072718
0.0727231
0.0727282
0.0727331
0.072738
0.0727429
0.0727476
0.0727523
0.0727569
0.0727615
0.072766
0.0727704
0.0727748
0.0727791
0.0727833
0.0727875
0.0727916
0.0727957
0.0727997
0.0728036
0.0728075
0.0728113
0.0728151
0.0728188
0.0728225
0.0728261
0.0728297
0.0728332
0.0728367
0.0728401
0.0728435
0.0728469
0.0728502
0.0728535
0.0728568
0.07286
0.0728632
0.0728664
0.0728695
0.0728727
0.0728758
0.0728788
0.0728819
0.072885
0.072888
0.0728911
0.0728941
0.0728971
0.0729001
0.0729032
0.0729062
0.0729092
0.0729123
0.0729153
0.0729183
0.0729214
0.0729245
0.0729275
0.0729306
0.0729337
0.0729369
0.07294
0.0729432
0.0729464
0.0729495
0.0729528
0.072956
0.0729593
0.0729625
0.0729658
0.0729691
0.0729725
0.0729758
0.0729792
0.0729825
0.0729859
0.0729893
0.0729927
0.0729962
0.0729996
0.073003
0.0730064
0.0730099
0.0730133
0.0730167
0.0730201
0.0730234
0.0730268
0.0730301
0.0730334
0.0730367
0.0730399
0.073043
0.0730462
0.0730492
0.0730522
0.0730551
0.0730579
0.0730606
0.0730633
0.0730658
0.0730682
0.0730704
0.0730725
0.0730745
0.0730763
0.0730779
0.0730793
0.0730805
0.0730814
0.0730821
0.0730826
0.0730828
0.0730826
0.0730822
0.0730814
0.0730802
0.0730786
0.0730766
0.0730742
0.0730713
0.0730678
0.0730638
0.0730593
0.0730541
0.0730483
0.0730418
0.0730346
0.0730267
0.0730179
0.0730082
0.0729977
0.0729862
0.0729737
0.0729602
0.0729456
0.0729298
0.0729128
0.0728946
0.072875
0.072854
0.0728317
0.0728078
0.0727823
0.0727552
0.0727265
0.072696
0.0726637
0.0726295
0.0725934
0.0725552
0.0725151
0.0724728
0.0724283
0.0723816
0.0723326
0.0722813
0.0722276
0.0721714
0.0721128
0.0720516
0.0719878
0.0719214
0.0718523
0.0717805
0.0717061
0.0716288
0.0715488
0.0714661
0.0713805
0.0712921
0.0712009
0.071107
0.0710102
0.0709106
0.0708083
0.0707032
0.0705954
0.070485
0.0703718
0.0702561
0.0701379
0.0700171
0.069894
0.0697685
0.0696407
0.0695107
0.0693787
0.0692446
0.0691086
0.0689708
0.0688314
0.0686903
0.0685479
0.0684041
0.0682592
0.0681132
0.0679664
0.0678189
0.0676709
0.0675224
0.0673738
0.0672252
0.0670767
0.0669286
0.0667811
0.0666343
0.0664886
0.0663439
0.0662007
0.0660591
0.0659194
0.0657817
0.0656463
0.0655133
0.0653832
0.0652559
0.0651319
0.0650112
0.0648942
0.064781
0.0646718
0.0645668
0.0644662
0.0643702
0.064279
0.0641926
0.0641112
0.064035
0.0639641
0.0638984
0.0638381
0.0637831
0.0637335
0.0636893
0.0636504
0.0636168
0.0635883
0.0635652
0.0635488
0.0635406
0.0637129
0.066255
0.0678732
0.0686936
0.0691245
0.0693616
0.0694972
0.0695889
0.0696652
0.0697363
0.0698058
0.0698747
0.0699432
0.0700108
0.0700771
0.070142
0.0702052
0.0702667
0.0703263
0.070384
0.0704398
0.0704939
0.0705462
0.0705967
0.0706457
0.0706931
0.0707389
0.0707834
0.0708264
0.0708681
0.0709086
0.0709479
0.070986
0.071023
0.071059
0.071094
0.071128
0.0711611
0.0711934
0.0712248
0.0712554
0.0712852
0.0713143
0.0713427
0.0713704
0.0713974
0.0714238
0.0714497
0.0714749
0.0714996
0.0715237
0.0715473
0.0715704
0.0715931
0.0716152
0.0716369
0.0716582
0.0716791
0.0716995
0.0717195
0.0717392
0.0717585
0.0717774
0.071796
0.0718143
0.0718322
0.0718498
0.0718671
0.0718841
0.0719008
0.0719172
0.0719333
0.0719492
0.0719648
0.0719802
0.0719953
0.0720101
0.0720248
0.0720392
0.0720534
0.0720673
0.0720811
0.0720946
0.0721079
0.0721211
0.072134
0.0721468
0.0721594
0.0721718
0.072184
0.072196
0.0722079
0.0722196
0.0722311
0.0722425
0.0722538
0.0722648
0.0722758
0.0722865
0.0722972
0.0723077
0.072318
0.0723283
0.0723383
0.0723483
0.0723581
0.0723678
0.0723774
0.0723869
0.0723962
0.0724054
0.0724145
0.0724235
0.0724324
0.0724411
0.0724498
0.0724583
0.0724668
0.0724751
0.0724834
0.0724915
0.0724995
0.0725075
0.0725153
0.0725231
0.0725307
0.0725383
0.0725458
0.0725531
0.0725604
0.0725676
0.0725747
0.0725818
0.0725887
0.0725956
0.0726024
0.0726091
0.0726157
0.0726222
0.0726287
0.0726351
0.0726413
0.0726476
0.0726537
0.0726598
0.0726658
0.0726717
0.0726775
0.0726833
0.072689
0.0726946
0.0727002
0.0727057
0.0727111
0.0727164
0.0727217
0.0727269
0.072732
0.072737
0.072742
0.0727469
0.0727518
0.0727566
0.0727613
0.0727659
0.0727705
0.072775
0.0727795
0.0727839
0.0727882
0.0727924
0.0727966
0.0728008
0.0728048
0.0728089
0.0728128
0.0728167
0.0728206
0.0728243
0.0728281
0.0728318
0.0728354
0.072839
0.0728425
0.072846
0.0728494
0.0728528
0.0728561
0.0728595
0.0728627
0.072866
0.0728692
0.0728723
0.0728754
0.0728786
0.0728816
0.0728847
0.0728877
0.0728907
0.0728937
0.0728967
0.0728997
0.0729026
0.0729056
0.0729085
0.0729114
0.0729143
0.0729173
0.0729202
0.0729231
0.0729261
0.072929
0.0729319
0.0729349
0.0729379
0.0729409
0.0729438
0.0729469
0.0729499
0.0729529
0.072956
0.0729591
0.0729622
0.0729653
0.0729684
0.0729716
0.0729748
0.072978
0.0729812
0.0729844
0.0729877
0.072991
0.0729943
0.0729976
0.0730009
0.0730042
0.0730076
0.0730109
0.0730143
0.0730176
0.073021
0.0730243
0.0730277
0.073031
0.0730343
0.0730376
0.0730409
0.0730442
0.0730474
0.0730506
0.0730537
0.0730568
0.0730598
0.0730628
0.0730657
0.0730685
0.0730713
0.0730739
0.0730765
0.0730789
0.0730812
0.0730833
0.0730853
0.0730872
0.0730889
0.0730904
0.0730917
0.0730927
0.0730936
0.0730942
0.0730945
0.0730945
0.0730942
0.0730936
0.0730927
0.0730913
0.0730896
0.0730874
0.0730848
0.0730817
0.073078
0.0730738
0.0730691
0.0730637
0.0730576
0.0730509
0.0730434
0.0730351
0.0730261
0.0730161
0.0730053
0.0729934
0.0729806
0.0729667
0.0729517
0.0729355
0.0729181
0.0728994
0.0728794
0.072858
0.0728351
0.0728107
0.0727847
0.0727571
0.0727278
0.0726967
0.0726637
0.0726289
0.0725922
0.0725534
0.0725125
0.0724695
0.0724243
0.0723769
0.0723271
0.072275
0.0722205
0.0721635
0.072104
0.0720419
0.0719773
0.07191
0.07184
0.0717673
0.0716919
0.0716137
0.0715328
0.071449
0.0713625
0.0712731
0.071181
0.071086
0.0709882
0.0708876
0.0707843
0.0706782
0.0705694
0.0704579
0.0703438
0.0702271
0.0701078
0.0699861
0.0698619
0.0697355
0.0696067
0.0694758
0.0693428
0.0692078
0.0690709
0.0689322
0.0687918
0.06865
0.0685067
0.0683621
0.0682164
0.0680697
0.0679222
0.067774
0.0676252
0.0674762
0.067327
0.0671778
0.0670288
0.0668802
0.0667323
0.0665851
0.0664389
0.066294
0.0661506
0.0660087
0.0658688
0.065731
0.0655955
0.0654626
0.0653324
0.0652053
0.0650814
0.0649609
0.0648441
0.0647312
0.0646223
0.0645177
0.0644176
0.0643221
0.0642314
0.0641456
0.0640649
0.0639893
0.063919
0.0638541
0.0637945
0.0637403
0.0636915
0.0636481
0.06361
0.0635771
0.0635495
0.0635272
0.0635116
0.063504
0.0627756
0.0647438
0.0664136
0.0676593
0.0685604
0.069196
0.0696294
0.0699227
0.0701253
0.0702695
0.0703764
0.0704594
0.0705273
0.0705853
0.0706369
0.0706841
0.0707282
0.0707701
0.0708104
0.0708492
0.0708869
0.0709235
0.0709593
0.0709942
0.0710283
0.0710616
0.0710942
0.0711261
0.0711573
0.0711879
0.0712178
0.071247
0.0712757
0.0713037
0.0713312
0.0713581
0.0713844
0.0714102
0.0714355
0.0714603
0.0714846
0.0715084
0.0715317
0.0715546
0.071577
0.071599
0.0716206
0.0716418
0.0716626
0.0716831
0.0717031
0.0717228
0.0717421
0.0717611
0.0717798
0.0717981
0.0718161
0.0718339
0.0718513
0.0718684
0.0718853
0.0719018
0.0719181
0.0719342
0.0719499
0.0719655
0.0719808
0.0719958
0.0720106
0.0720252
0.0720396
0.0720538
0.0720677
0.0720814
0.072095
0.0721083
0.0721215
0.0721344
0.0721472
0.0721598
0.0721722
0.0721845
0.0721966
0.0722085
0.0722202
0.0722318
0.0722433
0.0722546
0.0722657
0.0722767
0.0722875
0.0722982
0.0723088
0.0723192
0.0723295
0.0723397
0.0723497
0.0723596
0.0723694
0.072379
0.0723886
0.072398
0.0724073
0.0724165
0.0724256
0.0724345
0.0724434
0.0724522
0.0724608
0.0724693
0.0724778
0.0724861
0.0724943
0.0725025
0.0725105
0.0725185
0.0725263
0.0725341
0.0725418
0.0725493
0.0725568
0.0725642
0.0725715
0.0725788
0.0725859
0.072593
0.0725999
0.0726068
0.0726137
0.0726204
0.072627
0.0726336
0.0726401
0.0726466
0.0726529
0.0726592
0.0726654
0.0726715
0.0726776
0.0726835
0.0726895
0.0726953
0.0727011
0.0727068
0.0727124
0.0727179
0.0727234
0.0727289
0.0727342
0.0727395
0.0727447
0.0727499
0.0727549
0.07276
0.0727649
0.0727698
0.0727746
0.0727794
0.0727841
0.0727887
0.0727933
0.0727978
0.0728022
0.0728066
0.0728109
0.0728151
0.0728193
0.0728234
0.0728275
0.0728315
0.0728355
0.0728393
0.0728432
0.0728469
0.0728507
0.0728543
0.0728579
0.0728615
0.072865
0.0728684
0.0728718
0.0728752
0.0728785
0.0728818
0.072885
0.0728882
0.0728913
0.0728944
0.0728974
0.0729005
0.0729034
0.0729064
0.0729093
0.0729122
0.0729151
0.0729179
0.0729208
0.0729236
0.0729264
0.0729291
0.0729319
0.0729347
0.0729374
0.0729401
0.0729429
0.0729456
0.0729483
0.072951
0.0729538
0.0729565
0.0729593
0.072962
0.0729648
0.0729675
0.0729703
0.0729731
0.072976
0.0729788
0.0729817
0.0729845
0.0729874
0.0729903
0.0729933
0.0729962
0.0729992
0.0730022
0.0730053
0.0730083
0.0730114
0.0730145
0.0730176
0.0730207
0.0730239
0.073027
0.0730302
0.0730334
0.0730366
0.0730398
0.073043
0.0730462
0.0730495
0.0730527
0.0730559
0.0730591
0.0730623
0.0730655
0.0730686
0.0730717
0.0730748
0.0730779
0.0730809
0.0730839
0.0730868
0.0730896
0.0730924
0.0730951
0.0730977
0.0731002
0.0731026
0.0731049
0.073107
0.073109
0.0731109
0.0731126
0.0731142
0.0731155
0.0731167
0.0731176
0.0731183
0.0731187
0.0731189
0.0731187
0.0731183
0.0731175
0.0731164
0.0731149
0.0731129
0.0731106
0.0731077
0.0731044
0.0731006
0.0730962
0.0730912
0.0730855
0.0730792
0.0730723
0.0730645
0.073056
0.0730466
0.0730364
0.0730252
0.0730131
0.073
0.0729857
0.0729704
0.0729539
0.0729361
0.072917
0.0728966
0.0728748
0.0728515
0.0728266
0.0728002
0.0727721
0.0727423
0.0727107
0.0726773
0.0726419
0.0726046
0.0725653
0.0725238
0.0724803
0.0724345
0.0723864
0.072336
0.0722832
0.0722281
0.0721704
0.0721102
0.0720474
0.071982
0.071914
0.0718432
0.0717698
0.0716936
0.0716146
0.0715329
0.0714483
0.0713609
0.0712707
0.0711777
0.0710818
0.0709832
0.0708817
0.0707774
0.0706704
0.0705607
0.0704483
0.0703332
0.0702156
0.0700953
0.0699726
0.0698475
0.06972
0.0695903
0.0694584
0.0693243
0.0691883
0.0690504
0.0689107
0.0687693
0.0686263
0.068482
0.0683363
0.0681896
0.0680418
0.0678932
0.0677439
0.0675941
0.0674439
0.0672936
0.0671433
0.0669932
0.0668435
0.0666944
0.0665461
0.0663988
0.0662528
0.0661082
0.0659652
0.0658242
0.0656852
0.0655486
0.0654145
0.0652832
0.0651549
0.0650299
0.0649083
0.0647904
0.0646764
0.0645664
0.0644607
0.0643595
0.0642629
0.0641712
0.0640843
0.0640026
0.0639261
0.0638548
0.0637889
0.0637284
0.0636733
0.0636237
0.0635794
0.0635405
0.0635069
0.0634785
0.0634557
0.0634396
0.0634322
0.0620602
0.063308
0.0646078
0.0658342
0.0669193
0.0678342
0.0685743
0.069157
0.0696101
0.0699609
0.0702327
0.0704446
0.0706115
0.0707448
0.0708528
0.070942
0.0710168
0.0710807
0.0711363
0.0711854
0.0712294
0.0712694
0.0713061
0.0713403
0.0713723
0.0714024
0.0714311
0.0714585
0.0714848
0.0715102
0.0715347
0.0715584
0.0715815
0.0716039
0.0716258
0.0716471
0.071668
0.0716884
0.0717083
0.0717279
0.0717471
0.0717659
0.0717844
0.0718026
0.0718204
0.0718379
0.0718551
0.0718721
0.0718887
0.0719051
0.0719213
0.0719371
0.0719528
0.0719682
0.0719833
0.0719982
0.072013
0.0720274
0.0720417
0.0720558
0.0720697
0.0720833
0.0720968
0.0721101
0.0721232
0.0721362
0.0721489
0.0721615
0.0721739
0.0721862
0.0721982
0.0722102
0.0722219
0.0722335
0.072245
0.0722563
0.0722675
0.0722785
0.0722894
0.0723002
0.0723108
0.0723213
0.0723317
0.0723419
0.072352
0.072362
0.0723718
0.0723816
0.0723912
0.0724007
0.0724101
0.0724194
0.0724286
0.0724377
0.0724466
0.0724555
0.0724643
0.0724729
0.0724815
0.0724899
0.0724983
0.0725065
0.0725147
0.0725228
0.0725308
0.0725387
0.0725465
0.0725542
0.0725618
0.0725693
0.0725768
0.0725842
0.0725915
0.0725987
0.0726058
0.0726128
0.0726198
0.0726267
0.0726335
0.0726403
0.0726469
0.0726535
0.07266
0.0726665
0.0726728
0.0726791
0.0726854
0.0726915
0.0726976
0.0727036
0.0727096
0.0727154
0.0727213
0.072727
0.0727327
0.0727383
0.0727439
0.0727494
0.0727548
0.0727602
0.0727655
0.0727707
0.0727759
0.072781
0.072786
0.072791
0.0727959
0.0728008
0.0728056
0.0728104
0.072815
0.0728197
0.0728242
0.0728287
0.0728332
0.0728376
0.0728419
0.0728462
0.0728504
0.0728545
0.0728586
0.0728627
0.0728666
0.0728706
0.0728744
0.0728782
0.072882
0.0728857
0.0728893
0.0728929
0.0728964
0.0728999
0.0729033
0.0729067
0.07291
0.0729133
0.0729165
0.0729197
0.0729228
0.0729259
0.0729289
0.0729319
0.0729348
0.0729377
0.0729406
0.0729434
0.0729462
0.072949
0.0729517
0.0729544
0.072957
0.0729596
0.0729622
0.0729648
0.0729674
0.0729699
0.0729724
0.0729749
0.0729774
0.0729799
0.0729823
0.0729848
0.0729873
0.0729897
0.0729921
0.0729946
0.072997
0.0729995
0.073002
0.0730044
0.0730069
0.0730094
0.0730119
0.0730144
0.073017
0.0730195
0.0730221
0.0730247
0.0730273
0.0730299
0.0730326
0.0730353
0.073038
0.0730407
0.0730435
0.0730463
0.0730491
0.0730519
0.0730548
0.0730577
0.0730606
0.0730635
0.0730664
0.0730694
0.0730724
0.0730754
0.0730784
0.0730814
0.0730844
0.0730874
0.0730905
0.0730935
0.0730965
0.0730996
0.0731026
0.0731056
0.0731085
0.0731115
0.0731144
0.0731173
0.0731201
0.0731229
0.0731256
0.0731283
0.0731309
0.0731334
0.0731359
0.0731382
0.0731404
0.0731425
0.0731445
0.0731464
0.0731481
0.0731496
0.073151
0.0731522
0.0731531
0.0731539
0.0731544
0.0731547
0.0731546
0.0731543
0.0731537
0.0731527
0.0731514
0.0731497
0.0731476
0.073145
0.073142
0.0731385
0.0731344
0.0731298
0.0731246
0.0731187
0.0731122
0.073105
0.073097
0.0730883
0.0730786
0.0730682
0.0730567
0.0730443
0.0730309
0.0730164
0.0730008
0.0729839
0.0729658
0.0729465
0.0729257
0.0729035
0.0728799
0.0728547
0.0728279
0.0727995
0.0727693
0.0727373
0.0727034
0.0726677
0.07263
0.0725902
0.0725483
0.0725043
0.072458
0.0724094
0.0723586
0.0723053
0.0722496
0.0721914
0.0721306
0.0720673
0.0720014
0.0719327
0.0718614
0.0717874
0.0717106
0.071631
0.0715486
0.0714633
0.0713753
0.0712844
0.0711906
0.0710941
0.0709947
0.0708924
0.0707874
0.0706796
0.0705691
0.0704558
0.0703399
0.0702214
0.0701003
0.0699767
0.0698506
0.0697222
0.0695914
0.0694585
0.0693234
0.0691863
0.0690473
0.0689064
0.0687639
0.0686198
0.0684742
0.0683273
0.0681792
0.0680301
0.0678801
0.0677294
0.0675781
0.0674265
0.0672746
0.0671227
0.066971
0.0668196
0.0666688
0.0665187
0.0663696
0.0662217
0.0660752
0.0659303
0.0657872
0.0656462
0.0655075
0.0653712
0.0652378
0.0651073
0.0649799
0.064856
0.0647357
0.0646193
0.0645069
0.0643988
0.0642951
0.064196
0.0641017
0.0640124
0.0639281
0.063849
0.0637753
0.0637069
0.0636439
0.0635864
0.0635343
0.0634877
0.0634465
0.0634107
0.0633802
0.0633554
0.0633379
0.0633298
0.0616763
0.0623976
0.0632484
0.0641755
0.0651191
0.0660283
0.0668644
0.0676063
0.0682487
0.0687957
0.0692562
0.0696414
0.0699628
0.070231
0.0704554
0.0706438
0.0708028
0.070938
0.0710537
0.0711533
0.0712399
0.0713156
0.0713825
0.0714418
0.071495
0.071543
0.0715865
0.0716263
0.0716629
0.0716967
0.0717282
0.0717576
0.0717852
0.0718113
0.0718359
0.0718594
0.0718818
0.0719032
0.0719237
0.0719434
0.0719625
0.0719808
0.0719986
0.0720159
0.0720327
0.072049
0.0720648
0.0720803
0.0720954
0.0721102
0.0721246
0.0721388
0.0721526
0.0721662
0.0721795
0.0721926
0.0722054
0.072218
0.0722304
0.0722426
0.0722546
0.0722664
0.0722781
0.0722895
0.0723008
0.0723119
0.0723228
0.0723336
0.0723443
0.0723547
0.0723651
0.0723753
0.0723854
0.0723953
0.0724052
0.0724149
0.0724244
0.0724339
0.0724432
0.0724524
0.0724615
0.0724705
0.0724794
0.0724882
0.0724969
0.0725055
0.072514
0.0725223
0.0725306
0.0725388
0.0725469
0.0725549
0.0725628
0.0725707
0.0725784
0.072586
0.0725936
0.0726011
0.0726085
0.0726158
0.072623
0.0726302
0.0726373
0.0726443
0.0726512
0.0726581
0.0726648
0.0726715
0.0726782
0.0726847
0.0726912
0.0726976
0.072704
0.0727103
0.0727165
0.0727226
0.0727287
0.0727347
0.0727406
0.0727465
0.0727523
0.0727581
0.0727638
0.0727694
0.072775
0.0727805
0.072786
0.0727913
0.0727967
0.0728019
0.0728072
0.0728123
0.0728174
0.0728225
0.0728274
0.0728324
0.0728372
0.0728421
0.0728468
0.0728515
0.0728562
0.0728608
0.0728653
0.0728698
0.0728742
0.0728786
0.0728829
0.0728872
0.0728914
0.0728956
0.0728997
0.0729037
0.0729077
0.0729117
0.0729156
0.0729194
0.0729232
0.0729269
0.0729306
0.0729342
0.0729378
0.0729414
0.0729448
0.0729482
0.0729516
0.0729549
0.0729582
0.0729614
0.0729646
0.0729677
0.0729708
0.0729738
0.0729767
0.0729797
0.0729825
0.0729854
0.0729882
0.0729909
0.0729936
0.0729962
0.0729988
0.0730014
0.073004
0.0730064
0.0730089
0.0730113
0.0730137
0.0730161
0.0730184
0.0730207
0.073023
0.0730252
0.0730275
0.0730297
0.0730319
0.073034
0.0730362
0.0730383
0.0730405
0.0730426
0.0730447
0.0730469
0.073049
0.0730511
0.0730532
0.0730553
0.0730575
0.0730596
0.0730617
0.0730639
0.0730661
0.0730682
0.0730705
0.0730727
0.0730749
0.0730772
0.0730795
0.0730818
0.0730841
0.0730865
0.0730889
0.0730913
0.0730937
0.0730962
0.0730987
0.0731012
0.0731037
0.0731063
0.0731089
0.0731115
0.0731142
0.0731169
0.0731196
0.0731223
0.073125
0.0731278
0.0731306
0.0731334
0.0731362
0.073139
0.0731418
0.0731446
0.0731474
0.0731502
0.073153
0.0731558
0.0731586
0.0731613
0.073164
0.0731667
0.0731693
0.0731719
0.0731744
0.0731769
0.0731793
0.0731816
0.0731839
0.073186
0.0731881
0.07319
0.0731918
0.0731935
0.073195
0.0731963
0.0731975
0.0731985
0.0731993
0.0731999
0.0732002
0.0732003
0.0732001
0.0731996
0.0731988
0.0731976
0.0731961
0.0731942
0.0731919
0.0731891
0.0731859
0.0731822
0.073178
0.0731731
0.0731677
0.0731617
0.073155
0.0731476
0.0731394
0.0731304
0.0731206
0.0731099
0.0730982
0.0730856
0.073072
0.0730572
0.0730414
0.0730243
0.073006
0.0729864
0.0729654
0.072943
0.0729191
0.0728936
0.0728665
0.0728378
0.0728074
0.0727751
0.072741
0.0727049
0.0726669
0.0726268
0.0725846
0.0725403
0.0724937
0.0724448
0.0723936
0.07234
0.072284
0.0722254
0.0721643
0.0721006
0.0720342
0.0719652
0.0718935
0.071819
0.0717418
0.0716618
0.0715789
0.0714932
0.0714047
0.0713133
0.071219
0.0711219
0.0710219
0.0709191
0.0708135
0.0707051
0.0705939
0.07048
0.0703633
0.0702441
0.0701222
0.0699978
0.0698709
0.0697415
0.0696099
0.069476
0.0693399
0.0692017
0.0690616
0.0689196
0.0687758
0.0686304
0.0684835
0.0683352
0.0681857
0.0680351
0.0678835
0.0677311
0.0675782
0.0674247
0.067271
0.0671171
0.0669634
0.0668099
0.0666568
0.0665045
0.066353
0.0662026
0.0660536
0.065906
0.0657602
0.0656163
0.0654747
0.0653355
0.0651989
0.0650652
0.0649346
0.0648073
0.0646836
0.0645637
0.0644477
0.0643359
0.0642285
0.0641257
0.0640275
0.0639343
0.0638462
0.0637632
0.0636855
0.0636132
0.0635463
0.063485
0.0634291
0.0633788
0.0633339
0.0632945
0.0632607
0.0632327
0.0632125
0.0632033
0.0614873
0.0618997
0.0624111
0.0630134
0.0636871
0.0644048
0.0651352
0.0658501
0.0665283
0.0671563
0.0677271
0.0682385
0.0686922
0.0690918
0.0694422
0.0697488
0.0700167
0.0702511
0.0704564
0.0706366
0.0707952
0.0709353
0.0710594
0.0711698
0.0712684
0.0713567
0.0714362
0.0715081
0.0715732
0.0716325
0.0716867
0.0717365
0.0717822
0.0718245
0.0718638
0.0719002
0.0719343
0.0719661
0.071996
0.0720242
0.0720507
0.0720758
0.0720997
0.0721223
0.0721439
0.0721645
0.0721842
0.0722031
0.0722213
0.0722388
0.0722556
0.0722718
0.0722875
0.0723026
0.0723173
0.0723316
0.0723454
0.0723589
0.072372
0.0723847
0.0723972
0.0724093
0.0724211
0.0724327
0.072444
0.0724551
0.0724659
0.0724766
0.072487
0.0724972
0.0725072
0.0725171
0.0725267
0.0725362
0.0725455
0.0725547
0.0725638
0.0725726
0.0725814
0.07259
0.0725985
0.0726068
0.0726151
0.0726232
0.0726312
0.0726391
0.0726468
0.0726545
0.0726621
0.0726695
0.0726769
0.0726842
0.0726914
0.0726985
0.0727055
0.0727124
0.0727192
0.0727259
0.0727326
0.0727392
0.0727457
0.0727521
0.0727585
0.0727647
0.0727709
0.0727771
0.0727831
0.0727891
0.072795
0.0728009
0.0728066
0.0728124
0.072818
0.0728236
0.0728291
0.0728346
0.07284
0.0728453
0.0728506
0.0728558
0.072861
0.0728661
0.0728711
0.0728761
0.072881
0.0728859
0.0728907
0.0728955
0.0729002
0.0729048
0.0729094
0.072914
0.0729185
0.0729229
0.0729273
0.0729317
0.0729359
0.0729402
0.0729444
0.0729485
0.0729526
0.0729566
0.0729606
0.0729645
0.0729684
0.0729723
0.0729761
0.0729798
0.0729835
0.0729871
0.0729907
0.0729943
0.0729977
0.0730012
0.0730046
0.0730079
0.0730112
0.0730145
0.0730177
0.0730208
0.0730239
0.073027
0.07303
0.0730329
0.0730358
0.0730387
0.0730415
0.0730443
0.073047
0.0730497
0.0730523
0.0730549
0.0730574
0.0730599
0.0730624
0.0730648
0.0730671
0.0730695
0.0730718
0.073074
0.0730762
0.0730784
0.0730805
0.0730826
0.0730847
0.0730867
0.0730887
0.0730907
0.0730926
0.0730946
0.0730965
0.0730984
0.0731002
0.0731021
0.0731039
0.0731057
0.0731075
0.0731093
0.0731111
0.0731129
0.0731147
0.0731164
0.0731182
0.07312
0.0731218
0.0731236
0.0731254
0.0731272
0.073129
0.0731308
0.0731327
0.0731346
0.0731365
0.0731384
0.0731403
0.0731423
0.0731443
0.0731463
0.0731483
0.0731504
0.0731525
0.0731546
0.0731568
0.073159
0.0731612
0.0731634
0.0731657
0.073168
0.0731704
0.0731727
0.0731751
0.0731776
0.07318
0.0731825
0.073185
0.0731875
0.07319
0.0731926
0.0731951
0.0731977
0.0732003
0.0732029
0.0732055
0.0732081
0.0732106
0.0732132
0.0732157
0.0732183
0.0732208
0.0732232
0.0732257
0.0732281
0.0732304
0.0732327
0.0732349
0.073237
0.073239
0.073241
0.0732428
0.0732446
0.0732462
0.0732477
0.073249
0.0732502
0.0732512
0.073252
0.0732526
0.073253
0.0732532
0.0732531
0.0732527
0.073252
0.0732511
0.0732497
0.0732481
0.073246
0.0732435
0.0732406
0.0732372
0.0732333
0.0732289
0.073224
0.0732184
0.0732122
0.0732053
0.0731977
0.0731894
0.0731803
0.0731703
0.0731594
0.0731477
0.0731349
0.0731211
0.0731062
0.0730902
0.0730729
0.0730545
0.0730347
0.0730136
0.072991
0.072967
0.0729414
0.0729142
0.0728853
0.0728547
0.0728223
0.072788
0.0727518
0.0727136
0.0726734
0.0726311
0.0725866
0.0725398
0.0724908
0.0724394
0.0723857
0.0723295
0.0722707
0.0722095
0.0721456
0.0720791
0.0720099
0.071938
0.0718633
0.0717858
0.0717056
0.0716225
0.0715365
0.0714477
0.071356
0.0712615
0.0711641
0.0710637
0.0709606
0.0708546
0.0707457
0.0706341
0.0705196
0.0704025
0.0702826
0.0701602
0.0700351
0.0699075
0.0697774
0.069645
0.0695102
0.0693732
0.0692341
0.0690929
0.0689498
0.0688049
0.0686582
0.06851
0.0683603
0.0682092
0.068057
0.0679038
0.0677496
0.0675947
0.0674393
0.0672835
0.0671274
0.0669713
0.0668154
0.0666598
0.0665048
0.0663506
0.0661973
0.0660451
0.0658944
0.0657453
0.065598
0.0654528
0.0653099
0.0651695
0.0650318
0.0648971
0.0647657
0.0646376
0.0645132
0.0643927
0.0642763
0.0641641
0.0640564
0.0639534
0.0638552
0.063762
0.063674
0.0635912
0.0635137
0.0634418
0.0633753
0.0633144
0.0632591
0.0632094
0.0631652
0.0631267
0.0630945
0.0630707
0.0630596
0.0613929
0.0616395
0.0619447
0.0623136
0.0627464
0.0632374
0.0637743
0.0643412
0.0649213
0.0654993
0.0660621
0.0666
0.0671064
0.0675771
0.0680107
0.0684072
0.0687678
0.0690945
0.0693897
0.0696561
0.0698964
0.0701132
0.0703088
0.0704856
0.0706456
0.0707905
0.0709221
0.0710419
0.0711511
0.0712509
0.0713423
0.0714261
0.0715033
0.0715744
0.0716402
0.0717011
0.0717576
0.0718101
0.0718591
0.0719049
0.0719477
0.0719879
0.0720256
0.0720612
0.0720947
0.0721263
0.0721563
0.0721847
0.0722116
0.0722373
0.0722617
0.072285
0.0723072
0.0723285
0.0723488
0.0723684
0.0723871
0.0724051
0.0724225
0.0724392
0.0724553
0.0724709
0.0724859
0.0725004
0.0725145
0.0725282
0.0725414
0.0725543
0.0725667
0.0725789
0.0725907
0.0726022
0.0726134
0.0726243
0.0726349
0.0726453
0.0726555
0.0726654
0.0726751
0.0726846
0.0726939
0.072703
0.0727119
0.0727206
0.0727291
0.0727375
0.0727457
0.0727538
0.0727617
0.0727695
0.0727771
0.0727847
0.072792
0.0727993
0.0728064
0.0728135
0.0728204
0.0728272
0.0728338
0.0728404
0.0728469
0.0728533
0.0728596
0.0728658
0.0728719
0.0728779
0.0728838
0.0728897
0.0728954
0.0729011
0.0729067
0.0729122
0.0729177
0.072923
0.0729283
0.0729336
0.0729387
0.0729438
0.0729488
0.0729538
0.0729587
0.0729635
0.0729683
0.072973
0.0729776
0.0729822
0.0729867
0.0729911
0.0729955
0.0729999
0.0730042
0.0730084
0.0730126
0.0730167
0.0730207
0.0730248
0.0730287
0.0730326
0.0730365
0.0730403
0.073044
0.0730477
0.0730514
0.073055
0.0730585
0.073062
0.0730655
0.0730688
0.0730722
0.0730755
0.0730787
0.0730819
0.0730851
0.0730882
0.0730912
0.0730942
0.0730972
0.0731001
0.073103
0.0731058
0.0731085
0.0731113
0.0731139
0.0731165
0.0731191
0.0731216
0.0731241
0.0731266
0.0731289
0.0731313
0.0731336
0.0731358
0.0731381
0.0731402
0.0731423
0.0731444
0.0731465
0.0731485
0.0731504
0.0731524
0.0731542
0.0731561
0.0731579
0.0731597
0.0731615
0.0731632
0.0731649
0.0731665
0.0731682
0.0731698
0.0731714
0.073173
0.0731745
0.0731761
0.0731776
0.0731791
0.0731806
0.0731821
0.0731836
0.0731851
0.0731866
0.0731881
0.0731896
0.0731911
0.0731926
0.0731941
0.0731956
0.0731971
0.0731987
0.0732002
0.0732018
0.0732034
0.073205
0.0732067
0.0732084
0.0732101
0.0732118
0.0732135
0.0732153
0.0732171
0.073219
0.0732208
0.0732228
0.0732247
0.0732267
0.0732287
0.0732307
0.0732328
0.0732349
0.073237
0.0732392
0.0732414
0.0732436
0.0732458
0.0732481
0.0732504
0.0732527
0.0732551
0.0732574
0.0732598
0.0732622
0.0732645
0.0732669
0.0732693
0.0732717
0.073274
0.0732764
0.0732787
0.073281
0.0732833
0.0732856
0.0732878
0.0732899
0.073292
0.0732941
0.073296
0.0732979
0.0732997
0.0733014
0.0733029
0.0733044
0.0733057
0.0733069
0.0733079
0.0733088
0.0733094
0.0733099
0.0733102
0.0733102
0.0733099
0.0733094
0.0733086
0.0733075
0.0733061
0.0733043
0.0733021
0.0732995
0.0732964
0.0732929
0.073289
0.0732844
0.0732794
0.0732737
0.0732674
0.0732604
0.0732527
0.0732443
0.0732351
0.073225
0.0732141
0.0732022
0.0731894
0.0731755
0.0731606
0.0731445
0.0731272
0.0731087
0.0730889
0.0730677
0.0730451
0.073021
0.0729954
0.0729682
0.0729393
0.0729087
0.0728763
0.072842
0.0728059
0.0727677
0.0727275
0.0726852
0.0726407
0.072594
0.072545
0.0724937
0.07244
0.0723838
0.0723251
0.0722639
0.0722001
0.0721336
0.0720645
0.0719926
0.071918
0.0718405
0.0717603
0.0716772
0.0715913
0.0715024
0.0714107
0.0713161
0.0712186
0.0711182
0.0710149
0.0709088
0.0707997
0.0706879
0.0705732
0.0704558
0.0703356
0.0702127
0.0700872
0.0699591
0.0698285
0.0696955
0.06956
0.0694223
0.0692823
0.0691403
0.0689962
0.0688502
0.0687024
0.0685529
0.0684018
0.0682493
0.0680955
0.0679406
0.0677847
0.0676279
0.0674704
0.0673124
0.067154
0.0669955
0.066837
0.0666787
0.0665207
0.0663634
0.0662069
0.0660514
0.0658972
0.0657444
0.0655932
0.065444
0.0652969
0.0651521
0.06501
0.0648706
0.0647343
0.0646013
0.0644717
0.0643459
0.0642241
0.0641063
0.063993
0.0638842
0.0637801
0.0636809
0.0635868
0.063498
0.0634144
0.0633363
0.0632637
0.0631968
0.0631354
0.0630798
0.0630298
0.0629857
0.0629482
0.0629198
0.0629064
0.0613427
0.0615007
0.0616908
0.0619183
0.0621878
0.0625019
0.0628597
0.0632567
0.0636859
0.0641388
0.0646061
0.0650787
0.0655485
0.0660084
0.0664529
0.066878
0.0672808
0.0676599
0.0680145
0.0683447
0.0686511
0.0689347
0.0691966
0.0694383
0.0696611
0.0698665
0.0700558
0.0702304
0.0703915
0.0705402
0.0706777
0.070805
0.0709229
0.0710322
0.0711338
0.0712283
0.0713163
0.0713984
0.0714751
0.0715468
0.0716139
0.0716769
0.0717361
0.0717917
0.0718441
0.0718935
0.0719401
0.0719842
0.0720259
0.0720655
0.072103
0.0721387
0.0721725
0.0722048
0.0722356
0.0722649
0.0722929
0.0723197
0.0723453
0.0723699
0.0723934
0.072416
0.0724377
0.0724585
0.0724786
0.0724979
0.0725165
0.0725345
0.0725518
0.0725685
0.0725847
0.0726003
0.0726155
0.0726301
0.0726444
0.0726581
0.0726715
0.0726845
0.0726971
0.0727094
0.0727213
0.0727329
0.0727442
0.0727552
0.0727659
0.0727763
0.0727865
0.0727964
0.0728061
0.0728156
0.0728249
0.0728339
0.0728428
0.0728514
0.0728599
0.0728681
0.0728762
0.0728842
0.0728919
0.0728996
0.072907
0.0729143
0.0729215
0.0729285
0.0729354
0.0729422
0.0729489
0.0729554
0.0729618
0.0729681
0.0729743
0.0729803
0.0729863
0.0729921
0.0729979
0.0730036
0.0730091
0.0730146
0.07302
0.0730253
0.0730305
0.0730356
0.0730406
0.0730456
0.0730505
0.0730552
0.07306
0.0730646
0.0730692
0.0730737
0.0730781
0.0730825
0.0730868
0.073091
0.0730951
0.0730992
0.0731033
0.0731072
0.0731111