/*--------------------------------*- C++ -*----------------------------------*\
| =========                 |                                                 |
| \\      /  F ield         | OpenFOAM: The Open Source CFD Toolbox           |
|  \\    /   O peration     | Version:  2506                                  |
|   \\  /    A nd           | Website:  www.openfoam.com                      |
|    \\/     M anipulation  |                                                 |
\*---------------------------------------------------------------------------*/
FoamFile
{
    version     2.0;
    format      ascii;
    arch        "LSB;label=32;scalar=64";
    class       volScalarField;
    location    "400";
    object      p;
}
// * * * * * * * * * * * * * * * * * * * * * * * * * * * * * * * * * * * * * //

dimensions      [0 2 -2 0 0 0 0];

internalField   nonuniform List<scalar> 
131949
(
-33.4099
-25.8015
-22.123
-20.7527
-19.5249
-18.3796
-17.4706
-16.7217
-16.063
-15.4758
-14.9501
-14.4742
-14.039
-13.6381
-13.2667
-12.9208
-12.5972
-12.2931
-12.0064
-11.7352
-11.478
-11.2334
-11.0002
-10.7775
-10.5644
-10.3601
-10.164
-9.97532
-9.79367
-9.61852
-9.44944
-9.28604
-9.12796
-8.97489
-8.82653
-8.6826
-8.54288
-8.40712
-8.27513
-8.14672
-8.02169
-7.8999
-7.78119
-7.66542
-7.55245
-7.44217
-7.33446
-7.22921
-7.12632
-7.0257
-6.92725
-6.83091
-6.73657
-6.64418
-6.55366
-6.46495
-6.37798
-6.29269
-6.20903
-6.12695
-6.04639
-5.9673
-5.88964
-5.81337
-5.73845
-5.66483
-5.59247
-5.52135
-5.45142
-5.38266
-5.31502
-5.24849
-5.18303
-5.11862
-5.05522
-4.99282
-4.93138
-4.87089
-4.81131
-4.75264
-4.69485
-4.63791
-4.58181
-4.52653
-4.47206
-4.41837
-4.36544
-4.31327
-4.26183
-4.21111
-4.1611
-4.11178
-4.06314
-4.01516
-3.96783
-3.92115
-3.87509
-3.82964
-3.7848
-3.74055
-3.69689
-3.6538
-3.61127
-3.56929
-3.52786
-3.48696
-3.44658
-3.40672
-3.36737
-3.32852
-3.29016
-3.25229
-3.21489
-3.17796
-3.1415
-3.10549
-3.06992
-3.0348
-3.00012
-2.96586
-2.93203
-2.89861
-2.86561
-2.83301
-2.80081
-2.76901
-2.73759
-2.70656
-2.67591
-2.64563
-2.61573
-2.58618
-2.557
-2.52817
-2.4997
-2.47157
-2.44378
-2.41633
-2.38921
-2.36243
-2.33597
-2.30983
-2.28401
-2.25851
-2.23332
-2.20843
-2.18385
-2.15957
-2.13558
-2.11189
-2.08849
-2.06538
-2.04255
-2.02
-1.99772
-1.97573
-1.954
-1.93254
-1.91135
-1.89042
-1.86974
-1.84933
-1.82917
-1.80925
-1.78959
-1.77017
-1.751
-1.73206
-1.71336
-1.6949
-1.67667
-1.65866
-1.64089
-1.62333
-1.606
-1.58889
-1.57199
-1.55531
-1.53884
-1.52258
-1.50653
-1.49068
-1.47503
-1.45958
-1.44433
-1.42927
-1.4144
-1.39973
-1.38524
-1.37094
-1.35682
-1.34288
-1.32912
-1.31554
-1.30213
-1.28889
-1.27582
-1.26292
-1.25019
-1.23761
-1.2252
-1.21295
-1.20085
-1.18891
-1.17712
-1.16548
-1.15399
-1.14265
-1.13145
-1.12039
-1.10947
-1.09869
-1.08804
-1.07753
-1.06716
-1.05691
-1.04679
-1.0368
-1.02693
-1.01718
-1.00755
-0.998047
-0.988657
-0.979383
-0.970221
-0.961172
-0.952232
-0.9434
-0.934674
-0.926053
-0.917534
-0.909117
-0.9008
-0.89258
-0.884456
-0.876427
-0.868491
-0.860647
-0.852892
-0.845225
-0.837645
-0.83015
-0.822738
-0.815409
-0.80816
-0.80099
-0.793898
-0.786883
-0.779942
-0.773074
-0.766279
-0.759554
-0.752898
-0.74631
-0.739788
-0.733332
-0.72694
-0.72061
-0.714341
-0.708132
-0.701982
-0.69589
-0.689853
-0.683872
-0.677944
-0.672069
-0.666245
-0.660472
-0.654747
-0.64907
-0.643439
-0.637854
-0.632314
-0.626817
-0.621361
-0.615947
-0.610573
-0.605237
-0.599939
-0.594678
-0.589453
-0.584262
-0.579104
-0.57398
-0.568886
-0.563823
-0.55879
-0.553785
-0.548808
-0.543857
-0.538932
-0.534031
-0.529154
-0.5243
-0.519468
-0.514657
-0.509866
-0.505094
-0.50034
-0.495604
-0.490884
-0.48618
-0.481491
-0.476816
-0.472154
-0.467505
-0.462867
-0.45824
-0.453624
-0.449017
-0.444418
-0.439828
-0.435244
-0.430668
-0.426097
-0.421531
-0.41697
-0.412413
-0.407859
-0.403308
-0.398758
-0.394211
-0.389664
-0.385118
-0.380571
-0.376024
-0.371476
-0.366926
-0.362373
-0.357818
-0.35326
-0.348699
-0.344133
-0.339562
-0.334987
-0.330406
-0.32582
-0.321227
-0.316627
-0.312021
-0.307406
-0.302784
-0.298153
-0.293514
-0.288865
-0.284206
-0.279537
-0.274856
-0.270165
-0.265462
-0.260746
-0.256017
-0.251274
-0.246517
-0.241745
-0.236957
-0.232153
-0.227331
-0.222491
-0.217632
-0.212752
-0.207852
-0.202929
-0.197983
-0.193012
-0.188016
-0.182992
-0.177939
-0.172856
-0.167742
-0.162594
-0.157411
-0.152191
-0.146931
-0.141631
-0.136287
-0.130898
-0.12546
-0.119972
-0.11443
-0.108831
-0.103172
-0.0974494
-0.0916592
-0.0857971
-0.0798585
-0.0738383
-0.0677312
-0.0615312
-0.0552319
-0.0488255
-0.0423024
-0.0356508
-0.0288522
-0.0219003
-0.0147059
-0.00750905
0.000896188
0.00549498
0.0306734
-25.8613
-23.2964
-21.331
-20.1771
-19.1381
-18.1542
-17.3185
-16.6066
-15.9752
-15.4074
-14.895
-14.4287
-14.0009
-13.6057
-13.2388
-12.8966
-12.5758
-12.2742
-11.9895
-11.7201
-11.4643
-11.221
-10.9889
-10.7672
-10.5549
-10.3514
-10.1559
-9.96782
-9.78669
-9.61201
-9.44335
-9.28033
-9.1226
-8.96985
-8.82177
-8.67812
-8.53863
-8.4031
-8.27132
-8.14309
-8.01824
-7.89661
-7.77806
-7.66242
-7.54959
-7.43943
-7.33183
-7.22669
-7.1239
-7.02338
-6.92502
-6.82876
-6.7345
-6.64219
-6.55174
-6.46309
-6.37619
-6.29096
-6.20736
-6.12533
-6.04482
-5.96578
-5.88817
-5.81194
-5.73706
-5.66348
-5.59116
-5.52008
-5.45018
-5.38145
-5.31385
-5.24735
-5.18192
-5.11754
-5.05417
-4.99179
-4.93037
-4.8699
-4.81036
-4.75171
-4.69393
-4.63702
-4.58094
-4.52568
-4.47122
-4.41755
-4.36464
-4.31248
-4.26106
-4.21036
-4.16036
-4.11106
-4.06243
-4.01447
-3.96715
-3.92048
-3.87443
-3.829
-3.78417
-3.73993
-3.69628
-3.6532
-3.61068
-3.56871
-3.52729
-3.48639
-3.44603
-3.40618
-3.36684
-3.32799
-3.28964
-3.25178
-3.21439
-3.17747
-3.14101
-3.105
-3.06945
-3.03433
-2.99966
-2.96541
-2.93158
-2.89817
-2.86517
-2.83258
-2.80039
-2.76859
-2.73718
-2.70615
-2.67551
-2.64524
-2.61533
-2.58579
-2.55662
-2.52779
-2.49932
-2.4712
-2.44341
-2.41597
-2.38886
-2.36207
-2.33562
-2.30949
-2.28367
-2.25817
-2.23298
-2.2081
-2.18352
-2.15924
-2.13526
-2.11157
-2.08818
-2.06507
-2.04224
-2.01969
-1.99742
-1.97543
-1.95371
-1.93225
-1.91106
-1.89013
-1.86946
-1.84905
-1.82889
-1.80898
-1.78932
-1.7699
-1.75073
-1.7318
-1.7131
-1.69464
-1.67641
-1.65841
-1.64064
-1.62309
-1.60576
-1.58865
-1.57175
-1.55508
-1.53861
-1.52235
-1.5063
-1.49045
-1.4748
-1.45936
-1.44411
-1.42905
-1.41419
-1.39952
-1.38503
-1.37073
-1.35661
-1.34268
-1.32892
-1.31534
-1.30193
-1.2887
-1.27563
-1.26273
-1.25
-1.23743
-1.22502
-1.21277
-1.20067
-1.18874
-1.17695
-1.16531
-1.15382
-1.14248
-1.13128
-1.12023
-1.10931
-1.09853
-1.08789
-1.07738
-1.067
-1.05676
-1.04664
-1.03665
-1.02678
-1.01704
-1.00742
-0.99791
-0.988522
-0.97925
-0.97009
-0.961042
-0.952104
-0.943274
-0.934551
-0.925931
-0.917415
-0.909
-0.900684
-0.892466
-0.884345
-0.876317
-0.868383
-0.86054
-0.852787
-0.845122
-0.837544
-0.83005
-0.822641
-0.815313
-0.808066
-0.800898
-0.793808
-0.786794
-0.779854
-0.772988
-0.766194
-0.759471
-0.752817
-0.74623
-0.73971
-0.733255
-0.726864
-0.720536
-0.714269
-0.708061
-0.701913
-0.695822
-0.689786
-0.683806
-0.67788
-0.672006
-0.666183
-0.660411
-0.654687
-0.649011
-0.643382
-0.637798
-0.632258
-0.626762
-0.621307
-0.615894
-0.61052
-0.605186
-0.599888
-0.594628
-0.589403
-0.584213
-0.579056
-0.573931
-0.568838
-0.563776
-0.558743
-0.553738
-0.548761
-0.54381
-0.538885
-0.533984
-0.529107
-0.524253
-0.51942
-0.514608
-0.509817
-0.505044
-0.50029
-0.495552
-0.490832
-0.486127
-0.481437
-0.47676
-0.472097
-0.467446
-0.462807
-0.458179
-0.45356
-0.448951
-0.444351
-0.439758
-0.435173
-0.430593
-0.42602
-0.421452
-0.416888
-0.412327
-0.40777
-0.403216
-0.398663
-0.394112
-0.389562
-0.385011
-0.380461
-0.375909
-0.371356
-0.366802
-0.362244
-0.357684
-0.353121
-0.348553
-0.343982
-0.339405
-0.334824
-0.330236
-0.325643
-0.321043
-0.316436
-0.311822
-0.3072
-0.302569
-0.29793
-0.293281
-0.288623
-0.283954
-0.279275
-0.274585
-0.269883
-0.265168
-0.260441
-0.2557
-0.250946
-0.246176
-0.241391
-0.23659
-0.231772
-0.226936
-0.222082
-0.217208
-0.212313
-0.207398
-0.202459
-0.197497
-0.19251
-0.187497
-0.182456
-0.177387
-0.172287
-0.167155
-0.16199
-0.15679
-0.151552
-0.146276
-0.140958
-0.135597
-0.130192
-0.124738
-0.119234
-0.113676
-0.108063
-0.102391
-0.0966554
-0.0908535
-0.084981
-0.0790332
-0.0730053
-0.066892
-0.0606878
-0.0543865
-0.0479813
-0.041463
-0.0348211
-0.0280391
-0.0211075
-0.0139568
-0.00675869
0.00138925
0.00683837
0.0289172
-22.6511
-21.8504
-20.6119
-19.5635
-18.6675
-17.834
-17.085
-16.4238
-15.8303
-15.2912
-14.7995
-14.3489
-13.9332
-13.5477
-13.1885
-12.8525
-12.537
-12.2396
-11.9586
-11.6923
-11.4392
-11.1981
-10.9681
-10.7481
-10.5373
-10.3351
-10.1408
-9.95386
-9.77369
-9.59988
-9.432
-9.26969
-9.11261
-8.96044
-8.8129
-8.66973
-8.5307
-8.39558
-8.26418
-8.1363
-8.01178
-7.89046
-7.77218
-7.65681
-7.54423
-7.4343
-7.32691
-7.22197
-7.11937
-7.01902
-6.92084
-6.82473
-6.73062
-6.63845
-6.54813
-6.45961
-6.37282
-6.28771
-6.20421
-6.12228
-6.04187
-5.96292
-5.8854
-5.80926
-5.73445
-5.66095
-5.5887
-5.51768
-5.44786
-5.37919
-5.31165
-5.24521
-5.17983
-5.1155
-5.05218
-4.98985
-4.92848
-4.86806
-4.80855
-4.74995
-4.69221
-4.63534
-4.5793
-4.52407
-4.46965
-4.41601
-4.36313
-4.31101
-4.25962
-4.20894
-4.15898
-4.1097
-4.0611
-4.01316
-3.96587
-3.91922
-3.87319
-3.82778
-3.78298
-3.73876
-3.69513
-3.65207
-3.60957
-3.56762
-3.52621
-3.48534
-3.44499
-3.40516
-3.36583
-3.327
-3.28867
-3.25082
-3.21344
-3.17653
-3.14009
-3.1041
-3.06856
-3.03345
-2.99879
-2.96455
-2.93074
-2.89734
-2.86435
-2.83177
-2.79959
-2.7678
-2.7364
-2.70539
-2.67475
-2.64449
-2.61459
-2.58507
-2.5559
-2.52708
-2.49862
-2.4705
-2.44273
-2.41529
-2.38818
-2.36141
-2.33496
-2.30884
-2.28303
-2.25754
-2.23236
-2.20748
-2.18291
-2.15864
-2.13466
-2.11098
-2.08759
-2.06449
-2.04167
-2.01913
-1.99686
-1.97488
-1.95316
-1.93171
-1.91052
-1.8896
-1.86894
-1.84853
-1.82838
-1.80847
-1.78882
-1.76941
-1.75024
-1.73131
-1.71262
-1.69416
-1.67594
-1.65794
-1.64018
-1.62263
-1.60531
-1.5882
-1.57131
-1.55464
-1.53818
-1.52192
-1.50588
-1.49003
-1.47439
-1.45895
-1.4437
-1.42865
-1.4138
-1.39913
-1.38465
-1.37035
-1.35624
-1.34231
-1.32855
-1.31498
-1.30157
-1.28834
-1.27528
-1.26239
-1.24966
-1.23709
-1.22469
-1.21244
-1.20035
-1.18842
-1.17663
-1.165
-1.15352
-1.14218
-1.13098
-1.11993
-1.10902
-1.09825
-1.08761
-1.0771
-1.06673
-1.05649
-1.04638
-1.03639
-1.02653
-1.01679
-1.00717
-0.997664
-0.98828
-0.979011
-0.969855
-0.960811
-0.951877
-0.94305
-0.93433
-0.925715
-0.917202
-0.90879
-0.900478
-0.892264
-0.884145
-0.876121
-0.868191
-0.860351
-0.852601
-0.844939
-0.837364
-0.829874
-0.822468
-0.815143
-0.807899
-0.800734
-0.793647
-0.786636
-0.7797
-0.772837
-0.766046
-0.759325
-0.752674
-0.74609
-0.739573
-0.733121
-0.726733
-0.720407
-0.714143
-0.707938
-0.701792
-0.695703
-0.689671
-0.683693
-0.677769
-0.671898
-0.666077
-0.660307
-0.654586
-0.648912
-0.643285
-0.637703
-0.632166
-0.626672
-0.621219
-0.615808
-0.610436
-0.605103
-0.599808
-0.59455
-0.589326
-0.584138
-0.578983
-0.57386
-0.568768
-0.563707
-0.558676
-0.553672
-0.548696
-0.543747
-0.538823
-0.533923
-0.529047
-0.524194
-0.519362
-0.514551
-0.50976
-0.504988
-0.500234
-0.495498
-0.490777
-0.486073
-0.481382
-0.476706
-0.472043
-0.467392
-0.462753
-0.458124
-0.453505
-0.448896
-0.444295
-0.439701
-0.435115
-0.430535
-0.42596
-0.42139
-0.416825
-0.412263
-0.407705
-0.403148
-0.398594
-0.39404
-0.389487
-0.384935
-0.380381
-0.375827
-0.371271
-0.366713
-0.362153
-0.357589
-0.353022
-0.34845
-0.343875
-0.339294
-0.334707
-0.330115
-0.325517
-0.320911
-0.316299
-0.311678
-0.30705
-0.302413
-0.297767
-0.293111
-0.288445
-0.283769
-0.279082
-0.274383
-0.269672
-0.264949
-0.260212
-0.255462
-0.250697
-0.245918
-0.241122
-0.23631
-0.23148
-0.226633
-0.221767
-0.21688
-0.211973
-0.207045
-0.202093
-0.197117
-0.192117
-0.18709
-0.182035
-0.176952
-0.171838
-0.166692
-0.161512
-0.156297
-0.151045
-0.145755
-0.140423
-0.135049
-0.12963
-0.124163
-0.118646
-0.113077
-0.107453
-0.10177
-0.096026
-0.0902161
-0.0843369
-0.078384
-0.0723529
-0.0662388
-0.0600366
-0.0537409
-0.0473456
-0.0408431
-0.0342241
-0.0274755
-0.0205894
-0.0135099
-0.00639786
0.00154022
0.0068911
0.0278625
-20.7749
-20.4114
-19.6246
-18.8196
-18.0983
-17.4116
-16.764
-16.1706
-15.627
-15.1258
-14.6627
-14.2338
-13.8353
-13.4633
-13.1152
-12.7881
-12.48
-12.1889
-11.9131
-11.6513
-11.402
-11.1643
-10.9372
-10.7197
-10.5112
-10.311
-10.1185
-9.93306
-9.75431
-9.58177
-9.41505
-9.25379
-9.09765
-8.94635
-8.7996
-8.65716
-8.5188
-8.3843
-8.25346
-8.12611
-8.00208
-7.88121
-7.76336
-7.64838
-7.53616
-7.42657
-7.31951
-7.21487
-7.11255
-7.01247
-6.91453
-6.81866
-6.72478
-6.63281
-6.54269
-6.45436
-6.36775
-6.2828
-6.19946
-6.11769
-6.03742
-5.95861
-5.88122
-5.8052
-5.73051
-5.65712
-5.58499
-5.51407
-5.44434
-5.37577
-5.30832
-5.24197
-5.17668
-5.11242
-5.04918
-4.98692
-4.92563
-4.86527
-4.80583
-4.74729
-4.68962
-4.6328
-4.57681
-4.52164
-4.46727
-4.41368
-4.36086
-4.30878
-4.25743
-4.20681
-4.15688
-4.10764
-4.05908
-4.01118
-3.96393
-3.91731
-3.87132
-3.82595
-3.78117
-3.73699
-3.69339
-3.65036
-3.60789
-3.56597
-3.52459
-3.48374
-3.44342
-3.40361
-3.36431
-3.32551
-3.28719
-3.24936
-3.21201
-3.17513
-3.1387
-3.10273
-3.06721
-3.03213
-2.99748
-2.96326
-2.92946
-2.89608
-2.86311
-2.83055
-2.79838
-2.76661
-2.73523
-2.70423
-2.67361
-2.64336
-2.61348
-2.58396
-2.55481
-2.52601
-2.49756
-2.46945
-2.44169
-2.41426
-2.38717
-2.36041
-2.33398
-2.30786
-2.28207
-2.25658
-2.23141
-2.20655
-2.18199
-2.15773
-2.13376
-2.11009
-2.08671
-2.06362
-2.04081
-2.01827
-1.99602
-1.97404
-1.95233
-1.93089
-1.90972
-1.8888
-1.86815
-1.84775
-1.8276
-1.80771
-1.78806
-1.76866
-1.7495
-1.73058
-1.7119
-1.69345
-1.67523
-1.65725
-1.63948
-1.62195
-1.60463
-1.58753
-1.57065
-1.55399
-1.53753
-1.52128
-1.50524
-1.48941
-1.47377
-1.45834
-1.4431
-1.42806
-1.41321
-1.39855
-1.38407
-1.36978
-1.35568
-1.34175
-1.32801
-1.31444
-1.30104
-1.28782
-1.27476
-1.26187
-1.24915
-1.23659
-1.22419
-1.21196
-1.19987
-1.18794
-1.17617
-1.16454
-1.15306
-1.14173
-1.13054
-1.1195
-1.10859
-1.09782
-1.08719
-1.07669
-1.06633
-1.05609
-1.04598
-1.036
-1.02614
-1.01641
-1.00679
-0.997299
-0.98792
-0.978657
-0.969507
-0.960468
-0.951539
-0.942718
-0.934004
-0.925393
-0.916886
-0.908479
-0.900172
-0.891963
-0.88385
-0.875831
-0.867905
-0.860071
-0.852326
-0.844669
-0.837099
-0.829613
-0.822212
-0.814892
-0.807653
-0.800492
-0.79341
-0.786403
-0.779471
-0.772613
-0.765826
-0.75911
-0.752463
-0.745884
-0.739371
-0.732923
-0.726539
-0.720217
-0.713957
-0.707756
-0.701614
-0.695529
-0.689501
-0.683527
-0.677607
-0.671739
-0.665922
-0.660156
-0.654438
-0.648768
-0.643144
-0.637566
-0.632032
-0.626541
-0.621092
-0.615684
-0.610316
-0.604987
-0.599694
-0.594439
-0.589219
-0.584033
-0.578881
-0.573761
-0.568673
-0.563614
-0.558585
-0.553585
-0.548612
-0.543665
-0.538743
-0.533846
-0.528972
-0.524121
-0.519292
-0.514483
-0.509694
-0.504924
-0.500172
-0.495438
-0.490719
-0.486016
-0.481328
-0.476653
-0.471992
-0.467342
-0.462704
-0.458077
-0.453459
-0.44885
-0.44425
-0.439657
-0.435072
-0.430492
-0.425918
-0.421349
-0.416784
-0.412222
-0.407663
-0.403107
-0.398552
-0.393998
-0.389445
-0.384891
-0.380337
-0.375782
-0.371225
-0.366665
-0.362103
-0.357538
-0.352969
-0.348395
-0.343817
-0.339234
-0.334645
-0.33005
-0.325448
-0.320839
-0.316223
-0.311598
-0.306966
-0.302324
-0.297674
-0.293013
-0.288342
-0.28366
-0.278967
-0.274263
-0.269545
-0.264815
-0.260072
-0.255314
-0.250542
-0.245754
-0.240951
-0.23613
-0.231292
-0.226435
-0.221559
-0.216664
-0.211747
-0.206808
-0.201846
-0.196859
-0.191848
-0.18681
-0.181744
-0.176649
-0.171523
-0.166366
-0.161175
-0.155948
-0.150685
-0.145383
-0.14004
-0.134655
-0.129224
-0.123747
-0.118221
-0.112643
-0.10701
-0.10132
-0.095569
-0.0897541
-0.0838713
-0.0779167
-0.0718863
-0.0657755
-0.0595802
-0.0532957
-0.0469173
-0.0404387
-0.033853
-0.0271501
-0.0203272
-0.0133361
-0.00634382
0.00139239
0.00656207
0.0267721
-19.3755
-19.1792
-18.6894
-18.1018
-17.5243
-16.9554
-16.4011
-15.8765
-15.3851
-14.9249
-14.4939
-14.0904
-13.7121
-13.3566
-13.0218
-12.7059
-12.407
-12.1237
-11.8545
-11.5983
-11.354
-11.1205
-10.897
-10.6828
-10.4772
-10.2796
-10.0893
-9.90592
-9.72899
-9.5581
-9.39287
-9.23296
-9.07806
-8.92788
-8.78216
-8.64067
-8.50317
-8.36947
-8.23938
-8.11272
-7.98932
-7.86904
-7.75173
-7.63727
-7.52553
-7.41639
-7.30975
-7.2055
-7.10355
-7.00382
-6.90621
-6.81064
-6.71705
-6.62536
-6.5355
-6.44741
-6.36104
-6.27631
-6.19319
-6.11161
-6.03153
-5.9529
-5.87568
-5.79983
-5.7253
-5.65206
-5.58006
-5.50929
-5.43969
-5.37124
-5.30391
-5.23767
-5.17249
-5.10834
-5.0452
-4.98304
-4.92184
-4.86158
-4.80222
-4.74376
-4.68617
-4.62943
-4.57352
-4.51842
-4.46412
-4.4106
-4.35784
-4.30582
-4.25453
-4.20396
-4.15409
-4.10491
-4.0564
-4.00855
-3.96135
-3.91478
-3.86884
-3.82351
-3.77878
-3.73464
-3.69108
-3.64809
-3.60565
-3.56377
-3.52243
-3.48162
-3.44133
-3.40155
-3.36229
-3.32351
-3.28523
-3.24743
-3.21011
-3.17325
-3.13686
-3.10091
-3.06542
-3.03036
-2.99574
-2.96154
-2.92777
-2.89441
-2.86147
-2.82892
-2.79678
-2.76503
-2.73367
-2.70269
-2.67208
-2.64186
-2.612
-2.5825
-2.55336
-2.52458
-2.49615
-2.46806
-2.44031
-2.4129
-2.38583
-2.35908
-2.33266
-2.30656
-2.28078
-2.25532
-2.23016
-2.20531
-2.18076
-2.15651
-2.13256
-2.10891
-2.08554
-2.06246
-2.03966
-2.01714
-1.9949
-1.97293
-1.95124
-1.92981
-1.90864
-1.88774
-1.8671
-1.84671
-1.82658
-1.80669
-1.78706
-1.76767
-1.74852
-1.72961
-1.71094
-1.6925
-1.67429
-1.65632
-1.63857
-1.62104
-1.60373
-1.58665
-1.56977
-1.55312
-1.53667
-1.52044
-1.50441
-1.48858
-1.47296
-1.45753
-1.4423
-1.42727
-1.41243
-1.39777
-1.38331
-1.36903
-1.35493
-1.34102
-1.32728
-1.31372
-1.30033
-1.28712
-1.27407
-1.26119
-1.24848
-1.23593
-1.22354
-1.21131
-1.19924
-1.18731
-1.17555
-1.16393
-1.15246
-1.14114
-1.12996
-1.11892
-1.10802
-1.09726
-1.08664
-1.07615
-1.06579
-1.05556
-1.04546
-1.03549
-1.02564
-1.01591
-1.0063
-0.996816
-0.987445
-0.978189
-0.969046
-0.960015
-0.951093
-0.942279
-0.933572
-0.924969
-0.916468
-0.908069
-0.899768
-0.891566
-0.88346
-0.875448
-0.867528
-0.8597
-0.851962
-0.844312
-0.836748
-0.829269
-0.821873
-0.81456
-0.807327
-0.800173
-0.793096
-0.786096
-0.77917
-0.772317
-0.765536
-0.758826
-0.752185
-0.745611
-0.739104
-0.732661
-0.726283
-0.719967
-0.713712
-0.707516
-0.70138
-0.6953
-0.689277
-0.683308
-0.677393
-0.67153
-0.665719
-0.659957
-0.654244
-0.648579
-0.64296
-0.637387
-0.631858
-0.626371
-0.620927
-0.615523
-0.61016
-0.604834
-0.599547
-0.594296
-0.58908
-0.583899
-0.578751
-0.573635
-0.56855
-0.563496
-0.558471
-0.553474
-0.548505
-0.543562
-0.538644
-0.53375
-0.52888
-0.524033
-0.519207
-0.514402
-0.509616
-0.504849
-0.500101
-0.495369
-0.490654
-0.485954
-0.481268
-0.476596
-0.471938
-0.467291
-0.462655
-0.45803
-0.453415
-0.448809
-0.444211
-0.43962
-0.435036
-0.430459
-0.425886
-0.421319
-0.416755
-0.412195
-0.407638
-0.403082
-0.398528
-0.393976
-0.389423
-0.38487
-0.380316
-0.375761
-0.371204
-0.366645
-0.362083
-0.357517
-0.352947
-0.348373
-0.343794
-0.339209
-0.334619
-0.330022
-0.325418
-0.320807
-0.316189
-0.311562
-0.306926
-0.302282
-0.297628
-0.292964
-0.288289
-0.283603
-0.278906
-0.274197
-0.269475
-0.26474
-0.259991
-0.255227
-0.250449
-0.245655
-0.240845
-0.236017
-0.231172
-0.226308
-0.221425
-0.216521
-0.211596
-0.206649
-0.201679
-0.196684
-0.191663
-0.186616
-0.181541
-0.176437
-0.171302
-0.166135
-0.160934
-0.155698
-0.150426
-0.145115
-0.139763
-0.134369
-0.128931
-0.123446
-0.117912
-0.112328
-0.106689
-0.100994
-0.09524
-0.0894231
-0.08354
-0.0775874
-0.0715613
-0.0654582
-0.0592744
-0.0530065
-0.0466507
-0.0402027
-0.0336576
-0.0270089
-0.0202572
-0.0133632
-0.00649401
0.00105382
0.0060584
0.0256006
-18.2862
-18.1702
-17.8486
-17.4144
-16.9532
-16.4833
-16.0128
-15.5543
-15.1151
-14.6967
-14.2996
-13.9234
-13.5673
-13.2302
-12.9106
-12.6074
-12.3193
-12.0451
-11.7837
-11.5342
-11.2956
-11.0672
-10.8482
-10.6379
-10.4357
-10.2411
-10.0536
-9.87268
-9.69797
-9.52907
-9.36565
-9.20738
-9.05398
-8.90517
-8.76071
-8.62036
-8.48393
-8.35121
-8.22202
-8.09619
-7.97357
-7.85402
-7.73739
-7.62355
-7.5124
-7.40381
-7.29768
-7.19391
-7.09242
-6.99311
-6.8959
-6.80072
-6.70748
-6.61613
-6.52659
-6.43881
-6.35272
-6.26827
-6.1854
-6.10407
-6.02422
-5.94582
-5.86881
-5.79316
-5.71882
-5.64577
-5.57395
-5.50334
-5.43391
-5.36561
-5.29843
-5.23233
-5.16729
-5.10327
-5.04025
-4.97822
-4.91713
-4.85698
-4.79773
-4.73937
-4.68188
-4.62523
-4.56942
-4.51441
-4.46019
-4.40675
-4.35407
-4.30213
-4.25092
-4.20043
-4.15063
-4.10151
-4.05307
-4.00528
-3.95814
-3.91163
-3.86575
-3.82047
-3.77579
-3.73171
-3.6882
-3.64525
-3.60287
-3.56103
-3.51974
-3.47897
-3.43872
-3.39899
-3.35976
-3.32103
-3.28279
-3.24503
-3.20774
-3.17092
-3.13455
-3.09864
-3.06318
-3.02816
-2.99357
-2.9594
-2.92566
-2.89233
-2.85941
-2.8269
-2.79478
-2.76305
-2.73172
-2.70076
-2.67018
-2.63998
-2.61014
-2.58067
-2.55156
-2.52279
-2.49438
-2.46632
-2.43859
-2.4112
-2.38415
-2.35742
-2.33102
-2.30494
-2.27918
-2.25373
-2.22859
-2.20376
-2.17923
-2.155
-2.13107
-2.10743
-2.08408
-2.06101
-2.03823
-2.01573
-1.9935
-1.97155
-1.94987
-1.92845
-1.9073
-1.88642
-1.86579
-1.84541
-1.82529
-1.80543
-1.7858
-1.76643
-1.74729
-1.7284
-1.70974
-1.69131
-1.67312
-1.65516
-1.63742
-1.6199
-1.60261
-1.58554
-1.56868
-1.55203
-1.5356
-1.51938
-1.50336
-1.48755
-1.47193
-1.45652
-1.4413
-1.42628
-1.41145
-1.39681
-1.38236
-1.36809
-1.35401
-1.3401
-1.32638
-1.31283
-1.29945
-1.28625
-1.27321
-1.26035
-1.24764
-1.2351
-1.22273
-1.2105
-1.19844
-1.18653
-1.17477
-1.16317
-1.15171
-1.14039
-1.12923
-1.1182
-1.10731
-1.09656
-1.08595
-1.07547
-1.06512
-1.0549
-1.04481
-1.03485
-1.02501
-1.01529
-1.00569
-0.996214
-0.986852
-0.977606
-0.968472
-0.95945
-0.950537
-0.941733
-0.933034
-0.92444
-0.915948
-0.907557
-0.899266
-0.891072
-0.882974
-0.87497
-0.867059
-0.85924
-0.851509
-0.843867
-0.836311
-0.82884
-0.821453
-0.814147
-0.806922
-0.799775
-0.792706
-0.785713
-0.778795
-0.771949
-0.765176
-0.758473
-0.751839
-0.745272
-0.738772
-0.732336
-0.725965
-0.719655
-0.713407
-0.707218
-0.701088
-0.695015
-0.688999
-0.683036
-0.677128
-0.671271
-0.665466
-0.659711
-0.654004
-0.648345
-0.642732
-0.637165
-0.631641
-0.626161
-0.620723
-0.615325
-0.609967
-0.604647
-0.599365
-0.59412
-0.588909
-0.583733
-0.578591
-0.57348
-0.568401
-0.563352
-0.558332
-0.553341
-0.548376
-0.543438
-0.538525
-0.533637
-0.528772
-0.523929
-0.519108
-0.514307
-0.509526
-0.504764
-0.50002
-0.495293
-0.490581
-0.485886
-0.481204
-0.476537
-0.471882
-0.467239
-0.462607
-0.457986
-0.453375
-0.448772
-0.444177
-0.43959
-0.43501
-0.430435
-0.425866
-0.421301
-0.416741
-0.412183
-0.407628
-0.403076
-0.398524
-0.393973
-0.389423
-0.384872
-0.38032
-0.375767
-0.371211
-0.366653
-0.362092
-0.357527
-0.352958
-0.348384
-0.343805
-0.339221
-0.334631
-0.330034
-0.32543
-0.320818
-0.316199
-0.311571
-0.306934
-0.302288
-0.297632
-0.292966
-0.288289
-0.2836
-0.2789
-0.274188
-0.269463
-0.264724
-0.259971
-0.255204
-0.250421
-0.245623
-0.240807
-0.235975
-0.231124
-0.226255
-0.221366
-0.216456
-0.211525
-0.206571
-0.201594
-0.196592
-0.191565
-0.18651
-0.181428
-0.176317
-0.171174
-0.166
-0.160792
-0.155549
-0.150269
-0.144951
-0.139592
-0.134192
-0.128748
-0.123257
-0.117719
-0.11213
-0.106488
-0.100791
-0.0950357
-0.0892194
-0.0833389
-0.077391
-0.0713724
-0.0652802
-0.0591114
-0.0528636
-0.0465343
-0.0401209
-0.0336204
-0.0270291
-0.0203514
-0.0135521
-0.00680278
0.000578521
0.00544652
0.0243885
-17.3964
-17.3193
-17.0941
-16.7678
-16.4002
-16.0126
-15.6142
-15.2161
-14.8264
-14.449
-14.0857
-13.7376
-13.4048
-13.0872
-12.784
-12.4947
-12.2184
-11.9543
-11.7016
-11.4597
-11.2277
-11.005
-10.7911
-10.5853
-10.3871
-10.196
-10.0117
-9.83362
-9.66147
-9.4949
-9.33358
-9.17723
-9.02557
-8.87836
-8.73537
-8.59637
-8.46118
-8.3296
-8.20148
-8.07663
-7.95493
-7.83622
-7.72038
-7.60729
-7.49682
-7.38888
-7.28336
-7.18016
-7.0792
-6.9804
-6.88366
-6.78893
-6.69611
-6.60516
-6.516
-6.42857
-6.34282
-6.25869
-6.17613
-6.09509
-6.01553
-5.93739
-5.86063
-5.78522
-5.71111
-5.63827
-5.56666
-5.49625
-5.42701
-5.3589
-5.29189
-5.22596
-5.16108
-5.09722
-5.03435
-4.97246
-4.91151
-4.85149
-4.79237
-4.73413
-4.67676
-4.62022
-4.56452
-4.50962
-4.4555
-4.40216
-4.34957
-4.29773
-4.24661
-4.19619
-4.14648
-4.09744
-4.04908
-4.00136
-3.9543
-3.90786
-3.86204
-3.81683
-3.77222
-3.7282
-3.68475
-3.64186
-3.59954
-3.55776
-3.51651
-3.4758
-3.4356
-3.39592
-3.35674
-3.31806
-3.27986
-3.24214
-3.2049
-3.16812
-3.1318
-3.09593
-3.0605
-3.02552
-2.99096
-2.95683
-2.92313
-2.88983
-2.85695
-2.82446
-2.79238
-2.76069
-2.72938
-2.69845
-2.66791
-2.63773
-2.60792
-2.57848
-2.54939
-2.52065
-2.49227
-2.46423
-2.43653
-2.40917
-2.38213
-2.35543
-2.32905
-2.303
-2.27726
-2.25183
-2.22671
-2.2019
-2.17739
-2.15318
-2.12927
-2.10565
-2.08232
-2.05927
-2.03651
-2.01403
-1.99182
-1.96989
-1.94822
-1.92683
-1.9057
-1.88483
-1.86421
-1.84386
-1.82376
-1.8039
-1.7843
-1.76494
-1.74582
-1.72694
-1.7083
-1.68989
-1.67171
-1.65376
-1.63604
-1.61854
-1.60127
-1.58421
-1.56736
-1.55073
-1.53432
-1.51811
-1.5021
-1.4863
-1.47071
-1.45531
-1.44011
-1.4251
-1.41028
-1.39566
-1.38122
-1.36696
-1.35289
-1.339
-1.32529
-1.31176
-1.29839
-1.2852
-1.27218
-1.25933
-1.24664
-1.23411
-1.22175
-1.20954
-1.19749
-1.18559
-1.17385
-1.16225
-1.15081
-1.13951
-1.12835
-1.11733
-1.10646
-1.09572
-1.08512
-1.07465
-1.06432
-1.05411
-1.04403
-1.03408
-1.02425
-1.01454
-1.00496
-0.995492
-0.986142
-0.976907
-0.967784
-0.958773
-0.949872
-0.941078
-0.93239
-0.923806
-0.915325
-0.906944
-0.898663
-0.89048
-0.882392
-0.874398
-0.866497
-0.858687
-0.850967
-0.843334
-0.835788
-0.828327
-0.820948
-0.813652
-0.806436
-0.799299
-0.792239
-0.785255
-0.778345
-0.771509
-0.764744
-0.758049
-0.751424
-0.744866
-0.738374
-0.731947
-0.725584
-0.719283
-0.713042
-0.706862
-0.70074
-0.694675
-0.688666
-0.682711
-0.67681
-0.670961
-0.665164
-0.659416
-0.653717
-0.648065
-0.64246
-0.636899
-0.631383
-0.62591
-0.620479
-0.615088
-0.609737
-0.604424
-0.599149
-0.59391
-0.588707
-0.583537
-0.578401
-0.573298
-0.568225
-0.563182
-0.558169
-0.553184
-0.548225
-0.543294
-0.538387
-0.533504
-0.528645
-0.523809
-0.518993
-0.514199
-0.509423
-0.504667
-0.499928
-0.495207
-0.490501
-0.485811
-0.481135
-0.476473
-0.471823
-0.467186
-0.462559
-0.457943
-0.453336
-0.448738
-0.444149
-0.439566
-0.43499
-0.43042
-0.425855
-0.421295
-0.416738
-0.412185
-0.407634
-0.403085
-0.398537
-0.39399
-0.389443
-0.384895
-0.380346
-0.375796
-0.371243
-0.366687
-0.362129
-0.357566
-0.352999
-0.348427
-0.34385
-0.339267
-0.334678
-0.330082
-0.325479
-0.320868
-0.316249
-0.311622
-0.306985
-0.302339
-0.297682
-0.293016
-0.288338
-0.283648
-0.278947
-0.274233
-0.269506
-0.264765
-0.26001
-0.25524
-0.250454
-0.245653
-0.240834
-0.235998
-0.231144
-0.226271
-0.221378
-0.216463
-0.211528
-0.206569
-0.201587
-0.196581
-0.191548
-0.186489
-0.181401
-0.176284
-0.171136
-0.165956
-0.160743
-0.155495
-0.15021
-0.144887
-0.139523
-0.134119
-0.12867
-0.123176
-0.117635
-0.112044
-0.106401
-0.100704
-0.0949504
-0.089137
-0.0832613
-0.0773205
-0.0713119
-0.065233
-0.0590816
-0.0528563
-0.0465558
-0.0401788
-0.033724
-0.02719
-0.0205836
-0.0138742
-0.00723095
3.92003e-06
0.00476708
0.0231551
-16.6414
-16.5857
-16.4201
-16.1696
-15.8746
-15.5535
-15.2156
-14.8706
-14.5264
-14.1877
-13.8573
-13.5371
-13.2279
-12.9303
-12.6443
-12.3696
-12.1059
-11.8526
-11.6094
-11.3757
-11.1509
-10.9346
-10.7263
-10.5255
-10.3317
-10.1446
-9.96383
-9.78897
-9.61972
-9.45577
-9.29684
-9.14266
-8.99298
-8.84759
-8.70626
-8.5688
-8.43502
-8.30475
-8.17784
-8.05412
-7.93346
-7.81572
-7.70079
-7.58854
-7.47886
-7.37166
-7.26683
-7.16429
-7.06394
-6.96572
-6.86953
-6.7753
-6.68298
-6.59248
-6.50375
-6.41674
-6.33138
-6.24762
-6.16541
-6.08471
-6.00546
-5.92762
-5.85115
-5.77602
-5.70218
-5.62959
-5.55822
-5.48804
-5.41902
-5.35112
-5.28432
-5.21858
-5.15388
-5.0902
-5.0275
-4.96577
-4.90498
-4.84511
-4.78614
-4.72805
-4.67081
-4.61441
-4.55883
-4.50405
-4.45005
-4.39683
-4.34435
-4.29261
-4.24159
-4.19128
-4.14166
-4.09271
-4.04444
-3.99681
-3.94983
-3.90348
-3.85774
-3.81261
-3.76807
-3.72411
-3.68074
-3.63792
-3.59566
-3.55394
-3.51276
-3.47211
-3.43197
-3.39235
-3.35322
-3.31459
-3.27645
-3.23878
-3.20159
-3.16486
-3.12858
-3.09276
-3.05738
-3.02244
-2.98793
-2.95384
-2.92017
-2.88692
-2.85407
-2.82163
-2.78958
-2.75793
-2.72665
-2.69577
-2.66525
-2.63511
-2.60533
-2.57592
-2.54686
-2.51816
-2.4898
-2.46179
-2.43412
-2.40679
-2.37978
-2.35311
-2.32676
-2.30073
-2.27501
-2.24961
-2.22452
-2.19973
-2.17525
-2.15106
-2.12717
-2.10358
-2.08027
-2.05725
-2.0345
-2.01204
-1.98986
-1.96795
-1.9463
-1.92493
-1.90382
-1.88297
-1.86238
-1.84204
-1.82196
-1.80213
-1.78254
-1.7632
-1.7441
-1.72524
-1.70662
-1.68823
-1.67007
-1.65214
-1.63443
-1.61695
-1.59969
-1.58265
-1.56583
-1.54921
-1.53281
-1.51662
-1.50064
-1.48485
-1.46927
-1.45389
-1.43871
-1.42372
-1.40892
-1.39431
-1.37988
-1.36565
-1.35159
-1.33772
-1.32402
-1.3105
-1.29716
-1.28398
-1.27098
-1.25814
-1.24547
-1.23295
-1.2206
-1.20841
-1.19638
-1.1845
-1.17277
-1.16119
-1.14975
-1.13847
-1.12733
-1.11633
-1.10546
-1.09474
-1.08415
-1.0737
-1.06338
-1.05319
-1.04312
-1.03318
-1.02337
-1.01368
-1.0041
-0.994651
-0.985313
-0.976091
-0.966982
-0.957983
-0.949094
-0.940313
-0.931638
-0.923066
-0.914597
-0.906229
-0.89796
-0.889788
-0.881712
-0.873731
-0.865841
-0.858043
-0.850334
-0.842713
-0.835178
-0.827727
-0.82036
-0.813075
-0.805869
-0.798743
-0.791693
-0.78472
-0.777821
-0.770995
-0.76424
-0.757556
-0.75094
-0.744392
-0.73791
-0.731493
-0.725139
-0.718847
-0.712617
-0.706446
-0.700333
-0.694277
-0.688277
-0.682332
-0.67644
-0.6706
-0.664811
-0.659072
-0.653382
-0.647739
-0.642142
-0.63659
-0.631082
-0.625618
-0.620194
-0.614812
-0.609469
-0.604165
-0.598897
-0.593667
-0.588471
-0.58331
-0.578182
-0.573085
-0.56802
-0.562986
-0.55798
-0.553002
-0.548051
-0.543127
-0.538227
-0.533352
-0.5285
-0.523671
-0.518863
-0.514075
-0.509307
-0.504557
-0.499826
-0.495111
-0.490412
-0.485729
-0.481059
-0.476404
-0.47176
-0.467129
-0.462509
-0.457899
-0.453298
-0.448707
-0.444123