/*--------------------------------*- C++ -*----------------------------------*\
| =========                 |                                                 |
| \\      /  F ield         | OpenFOAM: The Open Source CFD Toolbox           |
|  \\    /   O peration     | Version:  2506                                  |
|   \\  /    A nd           | Website:  www.openfoam.com                      |
|    \\/     M anipulation  |                                                 |
\*---------------------------------------------------------------------------*/
FoamFile
{
    version     2.0;
    format      ascii;
    arch        "LSB;label=32;scalar=64";
    class       surfaceScalarField;
    location    "400";
    object      phi;
}
// * * * * * * * * * * * * * * * * * * * * * * * * * * * * * * * * * * * * * //

dimensions      [0 3 -1 0 0 0 0];

oriented        oriented;

internalField   nonuniform List<scalar> 
266147
(
0.00237347
0.000117012
0.0023151
5.83704e-05
0.00227865
3.64521e-05
0.00225492
2.37329e-05
0.0022381
1.68148e-05
0.00222486
1.32433e-05
0.00221383
1.10293e-05
0.00220438
9.44821e-06
0.0021961
8.2804e-06
0.00218872
7.38608e-06
0.00218204
6.67155e-06
0.00217596
6.0851e-06
0.00217036
5.59518e-06
0.00216519
5.17939e-06
0.00216036
4.82168e-06
0.00215585
4.51049e-06
0.00215162
4.23719e-06
0.00214762
3.99515e-06
0.00214384
3.77921e-06
0.00214026
3.5853e-06
0.00213685
3.41016e-06
0.00213359
3.25112e-06
0.00213049
3.10603e-06
0.00212752
2.97309e-06
0.00212466
2.8508e-06
0.00212193
2.73789e-06
0.00211929
2.6333e-06
0.00211676
2.53612e-06
0.00211431
2.44556e-06
0.00211195
2.36094e-06
0.00210967
2.28168e-06
0.00210746
2.20728e-06
0.00210532
2.13727e-06
0.00210325
2.07126e-06
0.00210124
2.00892e-06
0.00209929
1.94992e-06
0.0020974
1.89399e-06
0.00209556
1.84089e-06
0.00209377
1.7904e-06
0.00209203
1.74232e-06
0.00209033
1.69647e-06
0.00208868
1.6527e-06
0.00208707
1.61085e-06
0.00208549
1.57079e-06
0.00208396
1.5324e-06
0.00208247
1.49558e-06
0.00208101
1.46022e-06
0.00207958
1.42624e-06
0.00207819
1.39354e-06
0.00207682
1.36205e-06
0.00207549
1.33169e-06
0.00207419
1.30241e-06
0.00207292
1.27414e-06
0.00207167
1.24683e-06
0.00207045
1.22042e-06
0.00206925
1.19486e-06
0.00206808
1.17011e-06
0.00206694
1.14613e-06
0.00206581
1.12288e-06
0.00206471
1.10032e-06
0.00206364
1.07842e-06
0.00206258
1.05714e-06
0.00206154
1.03646e-06
0.00206053
1.01635e-06
0.00205953
9.96774e-07
0.00205855
9.7772e-07
0.00205759
9.5916e-07
0.00205665
9.41073e-07
0.00205573
9.23436e-07
0.00205482
9.06232e-07
0.00205393
8.89442e-07
0.00205306
8.73048e-07
0.0020522
8.57035e-07
0.00205136
8.41386e-07
0.00205053
8.26088e-07
0.00204972
8.11126e-07
0.00204893
7.96486e-07
0.00204814
7.82158e-07
0.00204738
7.68128e-07
0.00204662
7.54385e-07
0.00204588
7.40919e-07
0.00204515
7.27719e-07
0.00204444
7.14776e-07
0.00204374
7.0208e-07
0.00204305
6.89623e-07
0.00204237
6.77396e-07
0.0020417
6.65391e-07
0.00204105
6.536e-07
0.00204041
6.42016e-07
0.00203978
6.30632e-07
0.00203916
6.19441e-07
0.00203855
6.08437e-07
0.00203795
5.97613e-07
0.00203736
5.86965e-07
0.00203679
5.76485e-07
0.00203622
5.66169e-07
0.00203567
5.56011e-07
0.00203512
5.46007e-07
0.00203458
5.36152e-07
0.00203406
5.26441e-07
0.00203354
5.16869e-07
0.00203303
5.07433e-07
0.00203253
4.98129e-07
0.00203205
4.88952e-07
0.00203157
4.79898e-07
0.00203109
4.70965e-07
0.00203063
4.62149e-07
0.00203018
4.53446e-07
0.00202973
4.44853e-07
0.0020293
4.36367e-07
0.00202887
4.27985e-07
0.00202845
4.19705e-07
0.00202804
4.11523e-07
0.00202764
4.03436e-07
0.00202724
3.95443e-07
0.00202685
3.87541e-07
0.00202647
3.79728e-07
0.0020261
3.72e-07
0.00202574
3.64357e-07
0.00202538
3.56795e-07
0.00202503
3.49314e-07
0.00202469
3.4191e-07
0.00202435
3.34583e-07
0.00202403
3.2733e-07
0.00202371
3.2015e-07
0.00202339
3.1304e-07
0.00202309
3.06001e-07
0.00202279
2.99029e-07
0.0020225
2.92123e-07
0.00202221
2.85283e-07
0.00202193
2.78506e-07
0.00202166
2.71791e-07
0.00202139
2.65138e-07
0.00202114
2.58545e-07
0.00202088
2.52011e-07
0.00202064
2.45534e-07
0.0020204
2.39115e-07
0.00202017
2.32751e-07
0.00201994
2.26442e-07
0.00201972
2.20186e-07
0.00201951
2.13984e-07
0.0020193
2.07835e-07
0.0020191
2.01736e-07
0.0020189
1.95689e-07
0.00201871
1.89692e-07
0.00201853
1.83743e-07
0.00201835
1.77844e-07
0.00201818
1.71993e-07
0.00201801
1.6619e-07
0.00201785
1.60433e-07
0.0020177
1.54724e-07
0.00201755
1.4906e-07
0.0020174
1.43442e-07
0.00201727
1.3787e-07
0.00201713
1.32342e-07
0.00201701
1.26859e-07
0.00201689
1.2142e-07
0.00201677
1.16025e-07
0.00201666
1.10673e-07
0.00201655
1.05365e-07
0.00201645
1.00101e-07
0.00201636
9.48785e-08
0.00201627
8.96993e-08
0.00201618
8.45625e-08
0.0020161
7.94683e-08
0.00201603
7.44161e-08
0.00201596
6.94063e-08
0.0020159
6.44383e-08
0.00201584
5.95124e-08
0.00201578
5.46283e-08
0.00201573
4.97861e-08
0.00201569
4.49856e-08
0.00201565
4.0227e-08
0.00201561
3.55101e-08
0.00201558
3.0835e-08
0.00201555
2.62016e-08
0.00201553
2.16101e-08
0.00201552
1.70603e-08
0.0020155
1.25525e-08
0.0020155
8.08656e-09
0.00201549
3.66279e-09
0.00201549
-7.19073e-10
0.0020155
-5.05856e-09
0.00201551
-9.35596e-09
0.00201552
-1.36108e-08
0.00201554
-1.78233e-08
0.00201556
-2.19931e-08
0.00201559
-2.61203e-08
0.00201562
-3.02045e-08
0.00201565
-3.4246e-08
0.00201569
-3.82441e-08
0.00201573
-4.21992e-08
0.00201578
-4.61107e-08
0.00201583
-4.9979e-08
0.00201588
-5.38033e-08
0.00201594
-5.75841e-08
0.002016
-6.13208e-08
0.00201606
-6.50137e-08
0.00201613
-6.8662e-08
0.00201621
-7.22664e-08
0.00201628
-7.5826e-08
0.00201636
-7.93412e-08
0.00201644
-8.28115e-08
0.00201653
-8.62372e-08
0.00201662
-8.96177e-08
0.00201671
-9.29534e-08
0.00201681
-9.62436e-08
0.00201691
-9.94888e-08
0.00201701
-1.02688e-07
0.00201712
-1.05843e-07
0.00201723
-1.08951e-07
0.00201734
-1.12015e-07
0.00201745
-1.15032e-07
0.00201757
-1.18004e-07
0.00201769
-1.2093e-07
0.00201782
-1.2381e-07
0.00201794
-1.26644e-07
0.00201807
-1.29433e-07
0.0020182
-1.32176e-07
0.00201834
-1.34873e-07
0.00201848
-1.37524e-07
0.00201862
-1.40129e-07
0.00201876
-1.42689e-07
0.0020189
-1.45203e-07
0.00201905
-1.47671e-07
0.0020192
-1.50095e-07
0.00201935
-1.52472e-07
0.00201951
-1.54805e-07
0.00201967
-1.57092e-07
0.00201983
-1.59334e-07
0.00201999
-1.61532e-07
0.00202015
-1.63685e-07
0.00202032
-1.65793e-07
0.00202048
-1.67857e-07
0.00202065
-1.69877e-07
0.00202083
-1.71853e-07
0.002021
-1.73785e-07
0.00202118
-1.75675e-07
0.00202135
-1.77521e-07
0.00202153
-1.79324e-07
0.00202171
-1.81085e-07
0.0020219
-1.82804e-07
0.00202208
-1.84481e-07
0.00202227
-1.86117e-07
0.00202245
-1.87711e-07
0.00202264
-1.89266e-07
0.00202283
-1.90779e-07
0.00202303
-1.92254e-07
0.00202322
-1.93688e-07
0.00202342
-1.95085e-07
0.00202361
-1.96443e-07
0.00202381
-1.97763e-07
0.00202401
-1.99046e-07
0.00202421
-2.00293e-07
0.00202441
-2.01503e-07
0.00202461
-2.02679e-07
0.00202482
-2.03819e-07
0.00202502
-2.04926e-07
0.00202523
-2.05999e-07
0.00202543
-2.07041e-07
0.00202564
-2.08051e-07
0.00202585
-2.0903e-07
0.00202606
-2.09979e-07
0.00202627
-2.109e-07
0.00202648
-2.11792e-07
0.0020267
-2.12658e-07
0.00202691
-2.13498e-07
0.00202712
-2.14314e-07
0.00202734
-2.15106e-07
0.00202756
-2.15876e-07
0.00202777
-2.16625e-07
0.00202799
-2.17355e-07
0.00202821
-2.18066e-07
0.00202843
-2.18762e-07
0.00202865
-2.19442e-07
0.00202887
-2.20109e-07
0.00202909
-2.20764e-07
0.00202931
-2.2141e-07
0.00202953
-2.22048e-07
0.00202975
-2.2268e-07
0.00202998
-2.23308e-07
0.0020302
-2.23935e-07
0.00203042
-2.24562e-07
0.00203065
-2.25192e-07
0.00203088
-2.25827e-07
0.0020311
-2.2647e-07
0.00203133
-2.27123e-07
0.00203156
-2.27789e-07
0.00203179
-2.28471e-07
0.00203201
-2.29172e-07
0.00203224
-2.29894e-07
0.00203248
-2.30641e-07
0.00203271
-2.31416e-07
0.00203294
-2.32222e-07
0.00203317
-2.33061e-07
0.00203341
-2.3394e-07
0.00203364
-2.34859e-07
0.00203388
-2.35823e-07
0.00203411
-2.36835e-07
0.00203435
-2.379e-07
0.00203459
-2.39021e-07
0.00203483
-2.40203e-07
0.00203507
-2.41448e-07
0.00203531
-2.42761e-07
0.00203556
-2.44147e-07
0.0020358
-2.4561e-07
0.00203605
-2.47153e-07
0.0020363
-2.48782e-07
0.00203655
-2.505e-07
0.0020368
-2.52313e-07
0.00203706
-2.54225e-07
0.00203731
-2.56241e-07
0.00203757
-2.58365e-07
0.00203783
-2.60603e-07
0.00203809
-2.62959e-07
0.00203836
-2.65439e-07
0.00203863
-2.68048e-07
0.0020389
-2.70791e-07
0.00203917
-2.73673e-07
0.00203945
-2.767e-07
0.00203973
-2.79878e-07
0.00204001
-2.83213e-07
0.0020403
-2.86711e-07
0.00204059
-2.90377e-07
0.00204088
-2.94218e-07
0.00204118
-2.98241e-07
0.00204148
-3.02452e-07
0.00204179
-3.06859e-07
0.0020421
-3.11468e-07
0.00204242
-3.16287e-07
0.00204274
-3.21323e-07
0.00204307
-3.26585e-07
0.0020434
-3.3208e-07
0.00204374
-3.37818e-07
0.00204408
-3.43806e-07
0.00204443
-3.50055e-07
0.00204479
-3.56573e-07
0.00204515
-3.63371e-07
0.00204552
-3.70458e-07
0.0020459
-3.77846e-07
0.00204628
-3.85544e-07
0.00204668
-3.93566e-07
0.00204708
-4.01921e-07
0.00204749
-4.10623e-07
0.00204791
-4.19684e-07
0.00204834
-4.29117e-07
0.00204878
-4.38934e-07
0.00204923
-4.49152e-07
0.00204969
-4.59782e-07
0.00205016
-4.7084e-07
0.00205064
-4.8234e-07
0.00205113
-4.94299e-07
0.00205164
-5.0673e-07
0.00205216
-5.19651e-07
0.00205269
-5.33077e-07
0.00205324
-5.47026e-07
0.0020538
-5.61512e-07
0.00205438
-5.76553e-07
0.00205497
-5.92166e-07
0.00205558
-6.08368e-07
0.0020562
-6.25174e-07
0.00205685
-6.42603e-07
0.00205751
-6.60669e-07
0.00205819
-6.79389e-07
0.00205888
-6.98779e-07
0.0020596
-7.18854e-07
0.00206034
-7.39628e-07
0.0020611
-7.61116e-07
0.00206189
-7.83329e-07
0.00206269
-8.0628e-07
0.00206352
-8.29979e-07
0.00206438
-8.54436e-07
0.00206526
-8.79657e-07
0.00206616
-9.05649e-07
0.00206709
-9.32415e-07
0.00206805
-9.59958e-07
0.00206904
-9.88275e-07
0.00207006
-1.01737e-06
0.00207111
-1.04722e-06
0.00207218
-1.07783e-06
0.00207329
-1.10919e-06
0.00207444
-1.14127e-06
0.00207561
-1.17405e-06
0.00207682
-1.20752e-06
0.00207806
-1.24164e-06
0.00207933
-1.27637e-06
0.00208065
-1.31169e-06
0.00208199
-1.34753e-06
0.00208338
-1.38384e-06
0.0020848
-1.42056e-06
0.00208625
-1.45759e-06
0.00208775
-1.49484e-06
0.00208928
-1.53217e-06
0.00209085
-1.56942e-06
0.00209246
-1.60644e-06
0.0020941
-1.64277e-06
0.00209578
-1.67882e-06
0.00209749
-1.71076e-06
0.00209924
-1.751e-06
-1.74665e-06
0.00243699
0.000170511
0.00238645
0.000108911
0.00234549
7.74062e-05
0.00231243
5.67986e-05
0.00228645
4.27947e-05
0.00226591
3.37833e-05
0.00224923
2.77066e-05
0.00223536
2.33214e-05
0.00222357
2.00645e-05
0.00221337
1.7589e-05
0.00220439
1.565e-05
0.00219638
1.4091e-05
0.00218917
1.28125e-05
0.0021826
1.17461e-05
0.00217658
1.08432e-05
0.00217102
1.00687e-05
0.00216586
9.39705e-06
0.00216105
8.80898e-06
0.00215654
8.28969e-06
0.00215229
7.82769e-06
0.00214829
7.41391e-06
0.0021445
7.04109e-06
0.0021409
6.70336e-06
0.00213748
6.39592e-06
0.00213422
6.11481e-06
0.0021311
5.85672e-06
0.00212811
5.61888e-06
0.00212525
5.39894e-06
0.0021225
5.19492e-06
0.00211985
5.0051e-06
0.00211731
4.82801e-06
0.00211485
4.66237e-06
0.00211248
4.50708e-06
0.00211019
4.36116e-06
0.00210798
4.22375e-06
0.00210583
4.09411e-06
0.00210376
3.97157e-06
0.00210174
3.85554e-06
0.00209979
3.74548e-06
0.00209789
3.64094e-06
0.00209604
3.54148e-06
0.00209425
3.44672e-06
0.0020925
3.35632e-06
0.0020908
3.26998e-06
0.00208915
3.18739e-06
0.00208754
3.10832e-06
0.00208596
3.03253e-06
0.00208443
2.95979e-06
0.00208293
2.88993e-06
0.00208147
2.82276e-06
0.00208005
2.75811e-06
0.00207865
2.69584e-06
0.00207729
2.6358e-06
0.00207596
2.57787e-06
0.00207466
2.52193e-06
0.00207339
2.46786e-06
0.00207214
2.41557e-06
0.00207092
2.36497e-06
0.00206973
2.31595e-06
0.00206856
2.26845e-06
0.00206742
2.22238e-06
0.00206629
2.17767e-06
0.0020652
2.13427e-06
0.00206412
2.09209e-06
0.00206307
2.05109e-06
0.00206203
2.01121e-06
0.00206102
1.9724e-06
0.00206003
1.9346e-06
0.00205905
1.89779e-06
0.0020581
1.8619e-06
0.00205716
1.82691e-06
0.00205624
1.79277e-06
0.00205534
1.75944e-06
0.00205445
1.7269e-06
0.00205358
1.69511e-06
0.00205273
1.66404e-06
0.00205189
1.63367e-06
0.00205107
1.60395e-06
0.00205026
1.57488e-06
0.00204947
1.54641e-06
0.00204869
1.51854e-06
0.00204793
1.49124e-06
0.00204718
1.46448e-06
0.00204644
1.43825e-06
0.00204572
1.41253e-06
0.00204501
1.38729e-06
0.00204431
1.36253e-06
0.00204363
1.33822e-06
0.00204296
1.31435e-06
0.0020423
1.29091e-06
0.00204165
1.26787e-06
0.00204101
1.24523e-06
0.00204039
1.22297e-06
0.00203977
1.20108e-06
0.00203917
1.17955e-06
0.00203858
1.15837e-06
0.00203799
1.13752e-06
0.00203742
1.11699e-06
0.00203686
1.09678e-06
0.00203631
1.07687e-06
0.00203577
1.05725e-06
0.00203524
1.03792e-06
0.00203472
1.01887e-06
0.00203421
1.00009e-06
0.00203371
9.81561e-07
0.00203322
9.6329e-07
0.00203273
9.45263e-07
0.00203226
9.27475e-07
0.00203179
9.09917e-07
0.00203134
8.92585e-07
0.00203089
8.7547e-07
0.00203045
8.58568e-07
0.00203002
8.41873e-07
0.0020296
8.25378e-07
0.00202918
8.09078e-07
0.00202878
7.92969e-07
0.00202838
7.77045e-07
0.00202799
7.61301e-07
0.00202761
7.45733e-07
0.00202724
7.30336e-07
0.00202687
7.15106e-07
0.00202651
7.00039e-07
0.00202616
6.85131e-07
0.00202582
6.70379e-07
0.00202548
6.55777e-07
0.00202516
6.41324e-07
0.00202483
6.27016e-07
0.00202452
6.12849e-07
0.00202421
5.98821e-07
0.00202391
5.84927e-07
0.00202362
5.71167e-07
0.00202334
5.57536e-07
0.00202306
5.44033e-07
0.00202279
5.30654e-07
0.00202252
5.17398e-07
0.00202226
5.04261e-07
0.00202201
4.91243e-07
0.00202176
4.7834e-07
0.00202152
4.65551e-07
0.00202129
4.52874e-07
0.00202106
4.40307e-07
0.00202084
4.27848e-07
0.00202063
4.15496e-07
0.00202042
4.03249e-07
0.00202022
3.91106e-07
0.00202003
3.79064e-07
0.00201984
3.67124e-07
0.00201965
3.55283e-07
0.00201948
3.4354e-07
0.00201931
3.31895e-07
0.00201914
3.20346e-07
0.00201898
3.08892e-07
0.00201883
2.97532e-07
0.00201868
2.86266e-07
0.00201853
2.75091e-07
0.0020184
2.64009e-07
0.00201827
2.53018e-07
0.00201814
2.42116e-07
0.00201802
2.31305e-07
0.0020179
2.20583e-07
0.00201779
2.09949e-07
0.00201769
1.99403e-07
0.00201759
1.88945e-07
0.0020175
1.78574e-07
0.00201741
1.68289e-07
0.00201732
1.58092e-07
0.00201725
1.4798e-07
0.00201717
1.37955e-07
0.0020171
1.28015e-07
0.00201704
1.18161e-07
0.00201698
1.08392e-07
0.00201693
9.8709e-08
0.00201688
8.91107e-08
0.00201683
7.95976e-08
0.00201679
7.01695e-08
0.00201676
6.08266e-08
0.00201673
5.15686e-08
0.0020167
4.23959e-08
0.00201668
3.33082e-08
0.00201667
2.43057e-08
0.00201666
1.53885e-08
0.00201665
6.55682e-09
0.00201665
-2.18948e-09
0.00201665
-1.085e-08
0.00201665
-1.94247e-08
0.00201666
-2.79134e-08
0.00201668
-3.63159e-08
0.0020167
-4.4632e-08
0.00201672
-5.28615e-08
0.00201675
-6.10042e-08
0.00201678
-6.90599e-08
0.00201681
-7.70283e-08
0.00201685
-8.49093e-08
0.00201689
-9.27025e-08
0.00201694
-1.00408e-07
0.00201699
-1.08025e-07
0.00201704
-1.15554e-07
0.0020171
-1.22994e-07
0.00201716
-1.30345e-07
0.00201723
-1.37607e-07
0.0020173
-1.44779e-07
0.00201737
-1.51862e-07
0.00201745
-1.58855e-07
0.00201753
-1.65758e-07
0.00201761
-1.72571e-07
0.0020177
-1.79293e-07
0.00201779
-1.85925e-07
0.00201788
-1.92466e-07
0.00201797
-1.98916e-07
0.00201807
-2.05275e-07
0.00201818
-2.11542e-07
0.00201828
-2.17718e-07
0.00201839
-2.23803e-07
0.0020185
-2.29796e-07
0.00201862
-2.35698e-07
0.00201874
-2.41507e-07
0.00201886
-2.47225e-07
0.00201898
-2.52851e-07
0.00201911
-2.58386e-07
0.00201923
-2.63829e-07
0.00201937
-2.6918e-07
0.0020195
-2.74439e-07
0.00201964
-2.79608e-07
0.00201978
-2.84684e-07
0.00201992
-2.8967e-07
0.00202006
-2.94564e-07
0.00202021
-2.99368e-07
0.00202036
-3.04081e-07
0.00202051
-3.08703e-07
0.00202066
-3.13235e-07
0.00202082
-3.17678e-07
0.00202098
-3.22031e-07
0.00202114
-3.26295e-07
0.0020213
-3.3047e-07
0.00202147
-3.34557e-07
0.00202163
-3.38555e-07
0.0020218
-3.42467e-07
0.00202197
-3.46291e-07
0.00202215
-3.50029e-07
0.00202232
-3.53681e-07
0.0020225
-3.57248e-07
0.00202267
-3.6073e-07
0.00202285
-3.64128e-07
0.00202303
-3.67443e-07
0.00202322
-3.70675e-07
0.0020234
-3.73826e-07
0.00202359
-3.76895e-07
0.00202378
-3.79885e-07
0.00202396
-3.82795e-07
0.00202416
-3.85627e-07
0.00202435
-3.88382e-07
0.00202454
-3.9106e-07
0.00202474
-3.93664e-07
0.00202493
-3.96193e-07
0.00202513
-3.98649e-07
0.00202533
-4.01034e-07
0.00202553
-4.03348e-07
0.00202573
-4.05594e-07
0.00202593
-4.07771e-07
0.00202613
-4.09883e-07
0.00202633
-4.1193e-07
0.00202654
-4.13914e-07
0.00202675
-4.15838e-07
0.00202695
-4.17701e-07
0.00202716
-4.19507e-07
0.00202737
-4.21258e-07
0.00202758
-4.22955e-07
0.00202779
-4.24601e-07
0.002028
-4.26198e-07
0.00202821
-4.27748e-07
0.00202842
-4.29254e-07
0.00202864
-4.30718e-07
0.00202885
-4.32144e-07
0.00202907
-4.33534e-07
0.00202928
-4.34891e-07
0.0020295
-4.36217e-07
0.00202971
-4.37518e-07
0.00202993
-4.38795e-07
0.00203015
-4.40054e-07
0.00203037
-4.41296e-07
0.00203059
-4.42527e-07
0.00203081
-4.43749e-07
0.00203103
-4.44969e-07
0.00203125
-4.46189e-07
0.00203147
-4.47416e-07
0.00203169
-4.48652e-07
0.00203191
-4.49904e-07
0.00203214
-4.51176e-07
0.00203236
-4.52475e-07
0.00203259
-4.53804e-07
0.00203281
-4.55171e-07
0.00203304
-4.5658e-07
0.00203326
-4.58039e-07
0.00203349
-4.59552e-07
0.00203372
-4.61128e-07
0.00203395
-4.62771e-07
0.00203418
-4.6449e-07
0.00203441
-4.66291e-07
0.00203464
-4.68181e-07
0.00203487
-4.70167e-07
0.00203511
-4.72257e-07
0.00203534
-4.74459e-07
0.00203557
-4.7678e-07
0.00203581
-4.79228e-07
0.00203605
-4.81812e-07
0.00203629
-4.84539e-07
0.00203653
-4.87419e-07
0.00203677
-4.90458e-07
0.00203701
-4.93668e-07
0.00203726
-4.97055e-07
0.0020375
-5.0063e-07
0.00203775
-5.04401e-07
0.002038
-5.08378e-07
0.00203825
-5.12569e-07
0.00203851
-5.16986e-07
0.00203876
-5.21638e-07
0.00203902
-5.26535e-07
0.00203928
-5.31686e-07
0.00203955
-5.37104e-07
0.00203981
-5.42797e-07
0.00204008
-5.48779e-07
0.00204035
-5.55058e-07
0.00204063
-5.61648e-07
0.00204091
-5.6856e-07
0.00204119
-5.75805e-07
0.00204147
-5.83398e-07
0.00204176
-5.9135e-07
0.00204205
-5.99674e-07
0.00204235
-6.08385e-07
0.00204265
-6.17497e-07
0.00204296
-6.27023e-07
0.00204327
-6.3698e-07
0.00204358
-6.47384e-07
0.0020439
-6.58249e-07
0.00204423
-6.69593e-07
0.00204456
-6.81434e-07
0.0020449
-6.9379e-07
0.00204524
-7.06679e-07
0.00204559
-7.20121e-07
0.00204595
-7.34136e-07
0.00204631
-7.48745e-07
0.00204668
-7.6397e-07
0.00204706
-7.79834e-07
0.00204744
-7.96359e-07
0.00204784
-8.1357e-07
0.00204824
-8.31491e-07
0.00204865
-8.5015e-07
0.00204907
-8.69571e-07
0.0020495
-8.89782e-07
0.00204994
-9.10813e-07
0.00205039
-9.32691e-07
0.00205085
-9.55446e-07
0.00205133
-9.79109e-07
0.00205181
-1.00371e-06
0.00205231
-1.02928e-06
0.00205281
-1.05586e-06
0.00205334
-1.08347e-06
0.00205387
-1.11215e-06
0.00205442
-1.14193e-06
0.00205499
-1.17285e-06
0.00205557
-1.20494e-06
0.00205616
-1.23823e-06
0.00205677
-1.27275e-06
0.0020574
-1.30855e-06
0.00205805
-1.34564e-06
0.00205871
-1.38407e-06
0.0020594
-1.42387e-06
0.0020601
-1.46506e-06
0.00206083
-1.50767e-06
0.00206157
-1.55172e-06
0.00206234
-1.59725e-06
0.00206313
-1.64427e-06
0.00206394
-1.69281e-06
0.00206478
-1.74287e-06
0.00206564
-1.79447e-06
0.00206653
-1.84762e-06
0.00206744
-1.90232e-06
0.00206838
-1.95857e-06
0.00206935
-2.01637e-06
0.00207035
-2.0757e-06
0.00207138
-2.13655e-06
0.00207243
-2.19889e-06
0.00207352
-2.26268e-06
0.00207464
-2.32788e-06
0.00207579
-2.39446e-06
0.00207698
-2.46233e-06
0.0020782
-2.53143e-06
0.00207945
-2.60167e-06
0.00208074
-2.67295e-06
0.00208207
-2.74513e-06
0.00208343
-2.81807e-06
0.00208482
-2.89156e-06
0.00208626
-2.96539e-06
0.00208773
-3.03923e-06
0.00208923
-3.11274e-06
0.00209078
-3.18526e-06
0.00209235
-3.25645e-06
0.00209397
-3.32341e-06
0.00209561
-3.38955e-06
-3.42484e-06
0.00247084
0.000190158
0.00243653
0.000143226
0.00240244
0.00011149
0.00237102
8.82229e-05
0.00234326
7.05564e-05
0.00231944
5.76029e-05
0.00229907
4.8069e-05
0.00228155
4.08441e-05
0.00226635
3.52634e-05
0.00225305
3.08899e-05
0.0022413
2.74006e-05
0.00223082
2.45668e-05
0.00222141
2.22296e-05
0.00221288
2.02755e-05
0.0022051
1.86211e-05
0.00219796
1.72046e-05
0.00219138
1.59797e-05
0.00218528
1.49108e-05
0.0021796
1.39707e-05
0.00217429
1.31378e-05
0.00216931
1.23949e-05
0.00216462
1.17285e-05
0.00216019
1.11275e-05
0.00215601
1.05826e-05
0.00215204
1.00865e-05
0.00214826
9.63288e-06
0.00214466
9.21651e-06
0.00214123
8.83297e-06
0.00213794
8.47852e-06
0.0021348
8.14993e-06
0.00213178
7.84446e-06
0.00212889
7.55971e-06
0.0021261
7.29361e-06
0.00212342
7.04436e-06
0.00212083
6.81038e-06
0.00211833
6.59028e-06
0.00211592
6.38282e-06
0.00211359
6.18693e-06
0.00211133
6.00162e-06
0.00210915
5.82604e-06
0.00210703
5.65942e-06
0.00210498
5.50106e-06
0.00210298
5.35034e-06
0.00210105
5.20669e-06
0.00209916
5.06962e-06
0.00209733
4.93864e-06
0.00209555
4.81335e-06
0.00209382
4.69337e-06
0.00209213
4.57834e-06
0.00209048
4.46795e-06
0.00208888
4.3619e-06
0.00208732
4.25992e-06
0.00208579
4.16178e-06
0.0020843
4.06724e-06
0.00208285
3.97609e-06
0.00208143
3.88814e-06
0.00208004
3.80321e-06
0.00207868
3.72113e-06
0.00207736
3.64175e-06
0.00207606
3.56493e-06
0.00207479
3.49053e-06
0.00207355
3.41843e-06
0.00207234
3.34851e-06
0.00207115
3.28066e-06
0.00206998
3.21479e-06
0.00206884
3.15079e-06
0.00206773
3.08858e-06
0.00206663
3.02808e-06
0.00206556
2.9692e-06
0.00206451
2.91188e-06
0.00206348
2.85604e-06
0.00206248
2.80162e-06
0.00206149
2.74856e-06
0.00206052
2.69679e-06
0.00205956
2.64627e-06
0.00205863
2.59694e-06
0.00205772
2.54876e-06
0.00205682
2.50167e-06
0.00205594
2.45563e-06
0.00205507
2.41061e-06
0.00205423
2.36656e-06
0.00205339
2.32344e-06
0.00205258
2.28122e-06
0.00205178
2.23986e-06
0.00205099
2.19934e-06
0.00205022
2.15961e-06
0.00204946
2.12066e-06
0.00204871
2.08246e-06
0.00204798
2.04497e-06
0.00204727
2.00817e-06
0.00204656
1.97204e-06
0.00204587
1.93656e-06
0.00204519
1.9017e-06
0.00204453
1.86744e-06
0.00204387
1.83376e-06
0.00204323
1.80065e-06
0.0020426
1.76808e-06
0.00204198
1.73603e-06
0.00204137
1.7045e-06
0.00204077
1.67345e-06
0.00204019
1.64288e-06
0.00203961
1.61278e-06
0.00203905
1.58312e-06
0.0020385
1.5539e-06
0.00203795
1.5251e-06
0.00203742
1.4967e-06
0.0020369
1.4687e-06
0.00203638
1.44109e-06
0.00203588
1.41385e-06
0.00203538
1.38697e-06
0.0020349
1.36044e-06
0.00203442
1.33426e-06
0.00203396
1.3084e-06
0.0020335
1.28287e-06
0.00203305
1.25766e-06
0.00203261
1.23274e-06
0.00203218
1.20813e-06
0.00203176
1.18381e-06
0.00203134
1.15976e-06
0.00203094
1.136e-06
0.00203054
1.1125e-06
0.00203015
1.08926e-06
0.00202977
1.06627e-06
0.0020294
1.04354e-06
0.00202903
1.02104e-06
0.00202867
9.98783e-07
0.00202832
9.76757e-07
0.00202798
9.54956e-07
0.00202765
9.33376e-07
0.00202732
9.12012e-07
0.002027
8.90859e-07
0.00202669
8.69913e-07
0.00202638
8.49169e-07
0.00202608
8.28624e-07
0.00202579
8.08274e-07
0.00202551
7.88114e-07
0.00202523
7.68141e-07
0.00202496
7.48352e-07
0.0020247
7.28744e-07
0.00202444
7.09313e-07
0.00202419
6.90056e-07
0.00202395
6.7097e-07
0.00202371
6.52053e-07
0.00202348
6.33303e-07
0.00202326
6.14716e-07
0.00202304
5.9629e-07
0.00202283
5.78023e-07
0.00202263
5.59914e-07
0.00202243
5.41959e-07
0.00202224
5.24158e-07
0.00202205
5.06507e-07
0.00202187
4.89007e-07
0.0020217
4.71654e-07
0.00202153
4.54448e-07
0.00202137
4.37386e-07
0.00202121
4.20469e-07
0.00202106
4.03694e-07
0.00202091
3.87061e-07
0.00202077
3.70567e-07
0.00202064
3.54213e-07
0.00202051
3.37997e-07
0.00202039
3.21919e-07
0.00202027
3.05977e-07
0.00202016
2.90172e-07
0.00202005
2.74501e-07
0.00201995
2.58965e-07
0.00201986
2.43563e-07
0.00201977
2.28295e-07
0.00201968
2.1316e-07
0.0020196
1.98157e-07
0.00201953
1.83287e-07
0.00201946
1.68549e-07
0.00201939
1.53943e-07
0.00201933
1.39469e-07
0.00201928
1.25126e-07
0.00201923
1.10914e-07
0.00201918
9.68332e-08
0.00201914
8.28838e-08
0.00201911
6.90656e-08
0.00201908
5.53785e-08
0.00201905
4.18226e-08
0.00201903
2.83979e-08
0.00201901
1.51046e-08
0.002019
1.94262e-09
0.00201899
-1.10877e-08
0.00201898
-2.39862e-08
0.00201899
-3.67528e-08
0.00201899
-4.93872e-08
0.002019
-6.18892e-08
0.00201901
-7.42586e-08
0.00201903
-8.64951e-08
0.00201905
-9.85986e-08
0.00201908
-1.10569e-07
0.00201911
-1.22405e-07
0.00201914
-1.34107e-07
0.00201918
-1.45676e-07
0.00201922
-1.57109e-07
0.00201926
-1.68408e-07
0.00201931
-1.79572e-07
0.00201937
-1.90601e-07
0.00201942
-2.01494e-07
0.00201948
-2.12251e-07
0.00201955
-2.22872e-07
0.00201962
-2.33356e-07
0.00201969
-2.43704e-07
0.00201976
-2.53914e-07
0.00201984
-2.63988e-07
0.00201992
-2.73924e-07
0.00202001
-2.83723e-07
0.00202009
-2.93384e-07
0.00202019
-3.02906e-07
0.00202028
-3.12291e-07
0.00202038
-3.21538e-07
0.00202048
-3.30646e-07
0.00202058
-3.39616e-07
0.00202069
-3.48448e-07
0.0020208
-3.57141e-07
0.00202091
-3.65696e-07
0.00202103
-3.74113e-07
0.00202115
-3.82391e-07
0.00202127
-3.90531e-07
0.00202139
-3.98533e-07
0.00202152
-4.06397e-07
0.00202165
-4.14123e-07
0.00202178
-4.21711e-07
0.00202191
-4.29163e-07
0.00202205
-4.36477e-07
0.00202219
-4.43654e-07
0.00202233
-4.50696e-07
0.00202248
-4.57601e-07
0.00202262
-4.64371e-07
0.00202277
-4.71006e-07
0.00202292
-4.77506e-07
0.00202308
-4.83873e-07
0.00202323
-4.90106e-07
0.00202339
-4.96206e-07
0.00202355
-5.02175e-07
0.00202371
-5.08012e-07
0.00202388
-5.13719e-07
0.00202404
-5.19295e-07
0.00202421
-5.24743e-07
0.00202438
-5.30064e-07
0.00202455
-5.35257e-07
0.00202472
-5.40324e-07
0.0020249
-5.45266e-07
0.00202507
-5.50084e-07
0.00202525
-5.5478e-07
0.00202543
-5.59354e-07
0.00202561
-5.63808e-07
0.00202579
-5.68143e-07
0.00202598
-5.72361e-07
0.00202616
-5.76463e-07
0.00202635
-5.8045e-07
0.00202654
-5.84325e-07
0.00202673
-5.88089e-07
0.00202692
-5.91743e-07
0.00202711
-5.9529e-07
0.0020273
-5.98731e-07
0.0020275
-6.02069e-07
0.00202769
-6.05306e-07
0.00202789
-6.08443e-07
0.00202809
-6.11484e-07
0.00202829
-6.1443e-07
0.00202849
-6.17284e-07
0.00202869
-6.20049e-07
0.00202889
-6.22728e-07
0.00202909
-6.25324e-07
0.00202929
-6.27839e-07
0.0020295
-6.30278e-07
0.0020297
-6.32642e-07
0.00202991
-6.34937e-07
0.00203011
-6.37165e-07
0.00203032
-6.39331e-07
0.00203053
-6.41439e-07
0.00203074
-6.43493e-07
0.00203095
-6.45497e-07
0.00203116
-6.47457e-07
0.00203137
-6.49376e-07
0.00203158
-6.51261e-07
0.00203179
-6.53117e-07
0.002032
-6.54949e-07
0.00203222
-6.56763e-07
0.00203243
-6.58565e-07
0.00203264
-6.60362e-07
0.00203286
-6.62161e-07
0.00203307
-6.63967e-07
0.00203329
-6.65789e-07
0.00203351
-6.67633e-07
0.00203372
-6.69507e-07
0.00203394
-6.71421e-07
0.00203416
-6.7338e-07
0.00203438
-6.75394e-07
0.0020346
-6.77473e-07
0.00203482
-6.79624e-07
0.00203504
-6.81857e-07
0.00203526
-6.84182e-07
0.00203548
-6.86608e-07
0.0020357
-6.89147e-07
0.00203593
-6.91807e-07
0.00203615
-6.94599e-07
0.00203638
-6.97535e-07
0.0020366
-7.00626e-07
0.00203683
-7.03882e-07
0.00203706
-7.07316e-07
0.00203729
-7.10939e-07
0.00203752
-7.14763e-07
0.00203775
-7.188e-07
0.00203798
-7.23063e-07
0.00203821
-7.27565e-07
0.00203845
-7.32318e-07
0.00203869
-7.37335e-07
0.00203892
-7.4263e-07
0.00203916
-7.48217e-07
0.00203941
-7.54109e-07
0.00203965
-7.6032e-07
0.00203989
-7.66865e-07
0.00204014
-7.73758e-07
0.00204039
-7.81014e-07
0.00204064
-7.88648e-07
0.0020409
-7.96676e-07
0.00204115
-8.05113e-07
0.00204141
-8.13975e-07
0.00204167
-8.2328e-07
0.00204194
-8.33045e-07
0.0020422
-8.43285e-07
0.00204248
-8.54021e-07
0.00204275
-8.65269e-07
0.00204303
-8.7705e-07
0.00204331
-8.89382e-07
0.00204359
-9.02287e-07
0.00204388
-9.15784e-07
0.00204417
-9.29896e-07
0.00204447
-9.44644e-07
0.00204477
-9.60053e-07
0.00204508
-9.76146e-07
0.00204539
-9.92949e-07
0.00204571
-1.01049e-06
0.00204603
-1.02879e-06
0.00204636
-1.04788e-06
0.00204669
-1.06778e-06
0.00204703
-1.08854e-06
0.00204738
-1.11018e-06
0.00204773
-1.13273e-06
0.00204809
-1.15623e-06
0.00204846
-1.18071e-06
0.00204883
-1.2062e-06
0.00204921
-1.23275e-06
0.0020496
-1.2604e-06
0.00205
-1.28918e-06
0.00205041
-1.31913e-06
0.00205083
-1.3503e-06
0.00205126
-1.38272e-06
0.00205169
-1.41646e-06
0.00205214
-1.45154e-06
0.0020526
-1.48802e-06
0.00205307
-1.52595e-06
0.00205355
-1.56537e-06
0.00205405
-1.60633e-06
0.00205455
-1.64889e-06
0.00205507
-1.69309e-06
0.00205561
-1.73898e-06
0.00205616
-1.78663e-06
0.00205672
-1.83607e-06
0.0020573
-1.88736e-06
0.00205789
-1.94054e-06
0.0020585
-1.99568e-06
0.00205913
-2.05281e-06
0.00205978
-2.11199e-06
0.00206044
-2.17326e-06
0.00206113
-2.23665e-06
0.00206183
-2.30222e-06
0.00206256
-2.37001e-06
0.00206331
-2.44003e-06
0.00206408
-2.51233e-06
0.00206487
-2.58692e-06
0.00206568
-2.66384e-06
0.00206653
-2.74309e-06
0.00206739
-2.82467e-06
0.00206828
-2.9086e-06
0.0020692
-2.99486e-06
0.00207015
-3.08343e-06
0.00207112
-3.17429e-06
0.00207213
-3.2674e-06
0.00207316
-3.36271e-06
0.00207423
-3.46016e-06
0.00207533
-3.55967e-06
0.00207646
-3.66113e-06
0.00207762
-3.76444e-06
0.00207881
-3.86945e-06
0.00208004
-3.97599e-06
0.00208131
-4.08384e-06
0.00208261
-4.19276e-06
0.00208395
-4.30243e-06
0.00208532
-4.41244e-06
0.00208673
-4.5223e-06
0.00208818
-4.63128e-06
0.00208966
-4.73863e-06
0.00209118
-4.84206e-06
0.00209273
-4.94272e-06
-5.01872e-06
0.00248171
0.000198932
0.00246142
0.000163518
0.00243772
0.000135195
0.00241325
0.000112692
0.00238934
9.44677e-05
0.00236699
7.99493e-05
0.00234659
6.84682e-05
0.00232814
5.9296e-05
0.00231151
5.18931e-05
0.00229653
4.58715e-05
0.002283
4.09261e-05
0.00227075
3.68202e-05
0.0022596
3.33759e-05
0.00224942
3.04583e-05
0.00224007
2.79639e-05
0.00223147
2.58125e-05
0.0022235
2.3942e-05
0.00221611
2.23036e-05
0.00220922
2.08586e-05
0.00220279
1.95762e-05
0.00219675
1.84315e-05
0.00219107
1.74041e-05
0.00218572
1.64776e-05
0.00218067
1.56381e-05
0.00217588
1.48744e-05
0.00217134
1.41768e-05
0.00216701
1.35372e-05
0.0021629
1.2949e-05
0.00215897
1.24061e-05
0.00215522
1.19037e-05
0.00215162
1.14374e-05
0.00214818
1.10034e-05
0.00214488
1.05987e-05
0.0021417
1.02202e-05
0.00213864
9.86556e-06
0.0021357
9.53256e-06
0.00213287
9.21928e-06
0.00213013
8.92399e-06
0.00212748
8.64518e-06
0.00212493
8.38148e-06
0.00212246
8.13169e-06
0.00212006
7.8947e-06
0.00211774
7.66954e-06
0.00211549
7.45532e-06
0.00211331
7.25124e-06
0.0021112
7.05659e-06
0.00210914
6.87069e-06
0.00210714
6.69296e-06