/*--------------------------------*- C++ -*----------------------------------*\
| =========                 |                                                 |
| \\      /  F ield         | OpenFOAM: The Open Source CFD Toolbox           |
|  \\    /   O peration     | Version:  2506                                  |
|   \\  /    A nd           | Website:  www.openfoam.com                      |
|    \\/     M anipulation  |                                                 |
\*---------------------------------------------------------------------------*/
FoamFile
{
    version     2.0;
    format      ascii;
    arch        "LSB;label=32;scalar=64";
    class       volVectorField;
    location    "400";
    object      U;
}
// * * * * * * * * * * * * * * * * * * * * * * * * * * * * * * * * * * * * * //

dimensions      [0 1 -1 0 0 0 0];

internalField   nonuniform List<vector> 
131949
(
(9.79004 0.50869 0)
(9.35424 0.191718 0)
(9.14346 0.0846575 0)
(9.05442 0.0439535 0)
(8.98406 0.0273115 0)
(8.92302 0.0209578 0)
(8.87475 0.0179545 0)
(8.83488 0.0158978 0)
(8.79991 0.0143142 0)
(8.76876 0.013045 0)
(8.7408 0.0119804 0)
(8.71542 0.0110677 0)
(8.69216 0.0102796 0)
(8.67068 0.00959353 0)
(8.65074 0.00899109 0)
(8.63212 0.00845814 0)
(8.61466 0.0079836 0)
(8.59823 0.00755848 0)
(8.58271 0.00717548 0)
(8.568 0.00682864 0)
(8.55403 0.00651307 0)
(8.54072 0.00622467 0)
(8.52802 0.00596006 0)
(8.51587 0.00571637 0)
(8.50424 0.00549117 0)
(8.49307 0.00528239 0)
(8.48233 0.00508825 0)
(8.472 0.00490725 0)
(8.46205 0.00473804 0)
(8.45244 0.00457948 0)
(8.44316 0.00443057 0)
(8.43418 0.00429041 0)
(8.4255 0.00415824 0)
(8.41709 0.00403335 0)
(8.40893 0.00391515 0)
(8.40102 0.00380309 0)
(8.39333 0.00369667 0)
(8.38586 0.00359546 0)
(8.3786 0.00349908 0)
(8.37154 0.00340715 0)
(8.36466 0.00331937 0)
(8.35797 0.00323545 0)
(8.35144 0.00315511 0)
(8.34508 0.00307813 0)
(8.33888 0.00300427 0)
(8.33282 0.00293335 0)
(8.32691 0.00286518 0)
(8.32114 0.00279958 0)
(8.3155 0.0027364 0)
(8.30999 0.00267551 0)
(8.3046 0.00261677 0)
(8.29934 0.00256005 0)
(8.29418 0.00250525 0)
(8.28914 0.00245226 0)
(8.28421 0.00240099 0)
(8.27938 0.00235133 0)
(8.27465 0.00230322 0)
(8.27002 0.00225657 0)
(8.26548 0.0022113 0)
(8.26104 0.00216736 0)
(8.25668 0.00212467 0)
(8.25241 0.00208317 0)
(8.24822 0.00204282 0)
(8.24412 0.00200355 0)
(8.24009 0.00196533 0)
(8.23614 0.00192809 0)
(8.23227 0.0018918 0)
(8.22847 0.00185642 0)
(8.22474 0.0018219 0)
(8.22108 0.00178822 0)
(8.21749 0.00175533 0)
(8.21396 0.00172321 0)
(8.2105 0.00169182 0)
(8.20711 0.00166113 0)
(8.20377 0.00163111 0)
(8.2005 0.00160175 0)
(8.19728 0.00157301 0)
(8.19413 0.00154486 0)
(8.19103 0.0015173 0)
(8.18798 0.00149029 0)
(8.18499 0.00146381 0)
(8.18205 0.00143786 0)
(8.17917 0.00141239 0)
(8.17634 0.00138741 0)
(8.17355 0.00136289 0)
(8.17082 0.00133881 0)
(8.16813 0.00131517 0)
(8.1655 0.00129194 0)
(8.1629 0.00126911 0)
(8.16036 0.00124667 0)
(8.15786 0.0012246 0)
(8.1554 0.0012029 0)
(8.15299 0.00118155 0)
(8.15062 0.00116054 0)
(8.1483 0.00113986 0)
(8.14601 0.00111949 0)
(8.14377 0.00109943 0)
(8.14156 0.00107968 0)
(8.1394 0.00106021 0)
(8.13727 0.00104102 0)
(8.13519 0.0010221 0)
(8.13314 0.00100345 0)
(8.13113 0.000985054 0)
(8.12915 0.000966907 0)
(8.12721 0.000949 0)
(8.12531 0.000931328 0)
(8.12345 0.000913884 0)
(8.12162 0.000896661 0)
(8.11982 0.000879652 0)
(8.11806 0.000862853 0)
(8.11633 0.000846257 0)
(8.11463 0.000829858 0)
(8.11297 0.000813652 0)
(8.11134 0.000797633 0)
(8.10974 0.000781796 0)
(8.10818 0.000766137 0)
(8.10664 0.00075065 0)
(8.10514 0.000735333 0)
(8.10367 0.000720179 0)
(8.10222 0.000705186 0)
(8.10081 0.000690349 0)
(8.09943 0.000675665 0)
(8.09808 0.00066113 0)
(8.09675 0.000646741 0)
(8.09546 0.000632494 0)
(8.09419 0.000618385 0)
(8.09295 0.000604413 0)
(8.09174 0.000590574 0)
(8.09056 0.000576865 0)
(8.08941 0.000563284 0)
(8.08828 0.000549827 0)
(8.08718 0.000536493 0)
(8.0861 0.000523279 0)
(8.08506 0.000510183 0)
(8.08403 0.000497202 0)
(8.08304 0.000484334 0)
(8.08207 0.000471578 0)
(8.08113 0.000458932 0)
(8.08021 0.000446393 0)
(8.07932 0.00043396 0)
(8.07845 0.000421632 0)
(8.0776 0.000409406 0)
(8.07678 0.000397281 0)
(8.07599 0.000385257 0)
(8.07522 0.00037333 0)
(8.07447 0.000361501 0)
(8.07375 0.000349768 0)
(8.07305 0.00033813 0)
(8.07237 0.000326585 0)
(8.07172 0.000315133 0)
(8.07109 0.000303773 0)
(8.07048 0.000292504 0)
(8.0699 0.000281325 0)
(8.06933 0.000270235 0)
(8.06879 0.000259233 0)
(8.06827 0.000248319 0)
(8.06778 0.000237493 0)
(8.0673 0.000226753 0)
(8.06685 0.0002161 0)
(8.06642 0.000205531 0)
(8.06601 0.000195048 0)
(8.06562 0.00018465 0)
(8.06525 0.000174336 0)
(8.0649 0.000164107 0)
(8.06457 0.000153961 0)
(8.06426 0.000143898 0)
(8.06398 0.000133919 0)
(8.06371 0.000124023 0)
(8.06346 0.000114211 0)
(8.06323 0.000104481 0)
(8.06302 9.48336e-05 0)
(8.06283 8.52692e-05 0)
(8.06266 7.57878e-05 0)
(8.06251 6.6389e-05 0)
(8.06238 5.70733e-05 0)
(8.06226 4.78401e-05 0)
(8.06217 3.86903e-05 0)
(8.06209 2.96232e-05 0)
(8.06203 2.06396e-05 0)
(8.06199 1.1739e-05 0)
(8.06197 2.92232e-06 0)
(8.06196 -5.81103e-06 0)
(8.06197 -1.44601e-05 0)
(8.062 -2.30255e-05 0)
(8.06205 -3.15061e-05 0)
(8.06211 -3.99025e-05 0)
(8.06219 -4.82137e-05 0)
(8.06229 -5.64402e-05 0)
(8.0624 -6.45809e-05 0)
(8.06253 -7.26363e-05 0)
(8.06267 -8.06054e-05 0)
(8.06283 -8.84887e-05 0)
(8.06301 -9.6285e-05 0)
(8.0632 -0.000103995 0)
(8.06341 -0.000111617 0)
(8.06363 -0.000119153 0)
(8.06387 -0.0001266 0)
(8.06412 -0.000133959 0)
(8.06439 -0.00014123 0)
(8.06467 -0.000148412 3.898e-105)
(8.06497 -0.000155506 -3.89784e-105)
(8.06528 -0.00016251 0)
(8.0656 -0.000169425 0)
(8.06594 -0.00017625 0)
(8.06629 -0.000182985 0)
(8.06666 -0.00018963 0)
(8.06704 -0.000196184 0)
(8.06743 -0.000202648 0)
(8.06783 -0.000209021 0)
(8.06825 -0.000215303 0)
(8.06868 -0.000221493 0)
(8.06912 -0.000227593 0)
(8.06958 -0.000233601 0)
(8.07004 -0.000239517 0)
(8.07052 -0.000245342 0)
(8.07101 -0.000251075 0)
(8.07151 -0.000256716 0)
(8.07202 -0.000262266 0)
(8.07255 -0.000267723 0)
(8.07308 -0.00027309 0)
(8.07362 -0.000278364 0)
(8.07418 -0.000283547 0)
(8.07475 -0.000288637 0)
(8.07532 -0.000293638 0)
(8.07591 -0.000298546 0)
(8.0765 -0.000303364 0)
(8.07711 -0.00030809 0)
(8.07772 -0.000312727 0)
(8.07835 -0.000317272 0)
(8.07898 -0.000321729 0)
(8.07962 -0.000326095 0)
(8.08027 -0.000330372 0)
(8.08093 -0.000334559 0)
(8.0816 -0.000338659 0)
(8.08227 -0.00034267 0)
(8.08296 -0.000346595 0)
(8.08365 -0.000350431 0)
(8.08435 -0.000354182 0)
(8.08505 -0.000357846 0)
(8.08577 -0.000361426 0)
(8.08649 -0.00036492 0)
(8.08722 -0.000368331 0)
(8.08795 -0.000371658 0)
(8.08869 -0.000374903 0)
(8.08944 -0.000378066 0)
(8.09019 -0.000381149 0)
(8.09095 -0.000384151 0)
(8.09172 -0.000387076 0)
(8.09249 -0.000389921 0)
(8.09327 -0.00039269 0)
(8.09405 -0.000395383 0)
(8.09484 -0.000398002 0)
(8.09563 -0.000400546 0)
(8.09643 -0.000403019 0)
(8.09723 -0.00040542 0)
(8.09804 -0.000407753 0)
(8.09886 -0.000410016 0)
(8.09967 -0.000412214 0)
(8.1005 -0.000414345 0)
(8.10132 -0.000416414 0)
(8.10215 -0.00041842 0)
(8.10299 -0.000420368 0)
(8.10382 -0.000422256 0)
(8.10467 -0.000424089 0)
(8.10551 -0.000425867 0)
(8.10636 -0.000427594 0)
(8.10721 -0.00042927 0)
(8.10807 -0.000430901 0)
(8.10893 -0.000432485 0)
(8.10979 -0.000434029 0)
(8.11065 -0.000435532 0)
(8.11152 -0.000437 0)
(8.11239 -0.000438433 0)
(8.11327 -0.000439837 0)
(8.11414 -0.000441213 0)
(8.11502 -0.000442567 0)
(8.1159 -0.000443899 0)
(8.11679 -0.000445217 0)
(8.11767 -0.000446521 0)
(8.11856 -0.000447818 0)
(8.11945 -0.00044911 0)
(8.12035 -0.000450404 0)
(8.12125 -0.000451702 0)
(8.12215 -0.000453011 0)
(8.12305 -0.000454334 0)
(8.12395 -0.000455679 0)
(8.12486 -0.000457047 0)
(8.12577 -0.000458448 0)
(8.12668 -0.000459885 0)
(8.1276 -0.000461365 0)
(8.12851 -0.000462893 0)
(8.12944 -0.000464477 0)
(8.13036 -0.000466122 0)
(8.13129 -0.000467836 0)
(8.13222 -0.000469624 0)
(8.13315 -0.000471495 0)
(8.13409 -0.000473455 0)
(8.13503 -0.000475512 0)
(8.13597 -0.000477672 0)
(8.13692 -0.000479946 0)
(8.13788 -0.000482338 0)
(8.13884 -0.000484859 0)
(8.1398 -0.000487515 0)
(8.14077 -0.000490317 0)
(8.14174 -0.000493271 0)
(8.14272 -0.000496387 0)
(8.14371 -0.000499673 0)
(8.1447 -0.00050314 0)
(8.1457 -0.000506794 0)
(8.1467 -0.000510648 0)
(8.14771 -0.000514708 0)
(8.14873 -0.000518987 0)
(8.14976 -0.000523491 0)
(8.1508 -0.000528235 0)
(8.15185 -0.000533224 0)
(8.1529 -0.000538473 0)
(8.15397 -0.00054399 0)
(8.15505 -0.000549787 0)
(8.15614 -0.000555875 0)
(8.15724 -0.000562266 0)
(8.15835 -0.00056897 0)
(8.15948 -0.000576001 0)
(8.16062 -0.00058337 0)
(8.16177 -0.000591092 0)
(8.16294 -0.000599177 0)
(8.16412 -0.000607642 0)
(8.16532 -0.000616497 0)
(8.16654 -0.00062576 0)
(8.16778 -0.000635444 0)
(8.16903 -0.000645566 0)
(8.17031 -0.000656139 0)
(8.1716 -0.000667183 0)
(8.17292 -0.000678713 0)
(8.17426 -0.000690747 0)
(8.17562 -0.000703304 0)
(8.17701 -0.000716403 0)
(8.17842 -0.000730063 0)
(8.17986 -0.000744305 0)
(8.18133 -0.00075915 0)
(8.18283 -0.000774621 0)
(8.18435 -0.000790739 0)
(8.18591 -0.00080753 0)
(8.1875 -0.000825015 0)
(8.18913 -0.000843222 0)
(8.19079 -0.000862175 0)
(8.19248 -0.000881903 0)
(8.19422 -0.000902431 0)
(8.19599 -0.000923789 0)
(8.19781 -0.000946005 0)
(8.19967 -0.00096911 0)
(8.20158 -0.000993132 0)
(8.20353 -0.00101811 0)
(8.20553 -0.00104406 0)
(8.20758 -0.00107103 0)
(8.20969 -0.00109904 0)
(8.21185 -0.00112813 0)
(8.21406 -0.00115834 0)
(8.21634 -0.00118969 0)
(8.21867 -0.00122221 0)
(8.22107 -0.00125596 0)
(8.22354 -0.00129094 0)
(8.22608 -0.0013272 0)
(8.22868 -0.00136477 0)
(8.23136 -0.00140368 0)
(8.23412 -0.00144396 0)
(8.23695 -0.00148564 0)
(8.23986 -0.00152874 0)
(8.24287 -0.00157329 0)
(8.24595 -0.00161931 0)
(8.24913 -0.00166683 0)
(8.2524 -0.00171586 0)
(8.25577 -0.00176642 0)
(8.25924 -0.00181851 0)
(8.26281 -0.00187215 0)
(8.26648 -0.00192734 0)
(8.27026 -0.00198407 0)
(8.27416 -0.00204235 0)
(8.27817 -0.00210215 0)
(8.2823 -0.00216346 0)
(8.28654 -0.00222625 0)
(8.29092 -0.00229049 0)
(8.29542 -0.00235615 0)
(8.30005 -0.00242316 0)
(8.30481 -0.00249148 0)
(8.3097 -0.00256104 0)
(8.31474 -0.00263177 0)
(8.31991 -0.00270357 0)
(8.32523 -0.00277634 0)
(8.33069 -0.00284998 0)
(8.3363 -0.00292432 0)
(8.34205 -0.0029992 0)
(8.34796 -0.00307439 0)
(8.35401 -0.00314964 0)
(8.36021 -0.00322459 0)
(8.36656 -0.00329897 0)
(8.37307 -0.00337175 0)
(8.37968 -0.0034442 0)
(8.38659 -0.00350708 0)
(8.39294 -0.00359205 0)
(8.40269 -0.00356055 0)
(9.89636 0.592428 0)
(9.64868 0.329306 0)
(9.44654 0.219668 0)
(9.30553 0.153638 0)
(9.19287 0.11141 0)
(9.10032 0.0866471 0)
(9.02653 0.071098 0)
(8.96656 0.0601968 0)
(8.916 0.0522213 0)
(8.87243 0.0462096 0)
(8.83436 0.0414949 0)
(8.80063 0.0376784 0)
(8.77035 0.0345224 0)
(8.74291 0.0318667 0)
(8.71783 0.0295978 0)
(8.69475 0.0276347 0)
(8.67337 0.0259185 0)
(8.65348 0.0244044 0)
(8.63487 0.0230579 0)
(8.6174 0.0218522 0)
(8.60093 0.0207657 0)
(8.58537 0.0197812 0)
(8.57061 0.0188847 0)
(8.55659 0.0180646 0)
(8.54323 0.0173114 0)
(8.53048 0.0166168 0)
(8.51828 0.0159742 0)
(8.5066 0.0153778 0)
(8.49538 0.0148226 0)
(8.4846 0.0143043 0)
(8.47423 0.0138192 0)
(8.46423 0.0133642 0)
(8.45459 0.0129364 0)
(8.44527 0.0125334 0)
(8.43627 0.0121529 0)
(8.42755 0.0117931 0)
(8.41911 0.0114522 0)
(8.41093 0.0111287 0)
(8.403 0.0108213 0)
(8.39529 0.0105286 0)
(8.38781 0.0102497 0)
(8.38053 0.00998352 0)
(8.37345 0.00972913 0)
(8.36657 0.00948573 0)
(8.35986 0.00925259 0)
(8.35333 0.00902901 0)
(8.34696 0.0088144 0)
(8.34075 0.00860817 0)
(8.33469 0.0084098 0)
(8.32878 0.00821883 0)
(8.323 0.00803481 0)
(8.31736 0.00785734 0)
(8.31185 0.00768604 0)
(8.30647 0.00752057 0)
(8.30121 0.0073606 0)
(8.29606 0.00720585 0)
(8.29102 0.00705602 0)
(8.28609 0.00691087 0)
(8.28127 0.00677016 0)
(8.27655 0.00663366 0)
(8.27192 0.00650117 0)
(8.2674 0.00637248 0)
(8.26296 0.00624742 0)
(8.25861 0.00612582 0)
(8.25435 0.00600751 0)
(8.25018 0.00589235 0)
(8.24609 0.00578019 0)
(8.24207 0.0056709 0)
(8.23814 0.00556436 0)
(8.23428 0.00546043 0)
(8.23049 0.00535903 0)
(8.22678 0.00526003 0)
(8.22313 0.00516334 0)
(8.21956 0.00506887 0)
(8.21605 0.00497652 0)
(8.2126 0.00488621 0)
(8.20922 0.00479786 0)
(8.20591 0.00471139 0)
(8.20265 0.00462673 0)
(8.19945 0.00454382 0)
(8.19631 0.00446259 0)
(8.19323 0.00438297 0)
(8.19021 0.0043049 0)
(8.18723 0.00422834 0)
(8.18432 0.00415322 0)
(8.18145 0.00407949 0)
(8.17864 0.00400711 0)
(8.17587 0.00393603 0)
(8.17316 0.0038662 0)
(8.17049 0.00379759 0)
(8.16788 0.00373014 0)
(8.16531 0.00366382 0)
(8.16278 0.0035986 0)
(8.1603 0.00353444 0)
(8.15787 0.0034713 0)
(8.15548 0.00340915 0)
(8.15313 0.00334795 0)
(8.15083 0.00328769 0)
(8.14856 0.00322833 0)
(8.14634 0.00316984 0)
(8.14416 0.0031122 0)
(8.14202 0.00305537 0)
(8.13991 0.00299934 0)
(8.13785 0.00294408 0)
(8.13583 0.00288957 0)
(8.13384 0.00283579 0)
(8.13189 0.00278271 0)
(8.12997 0.00273032 0)
(8.12809 0.0026786 0)
(8.12625 0.00262752 0)
(8.12444 0.00257707 0)
(8.12267 0.00252723 0)
(8.12093 0.00247799 0)
(8.11923 0.00242933 0)
(8.11756 0.00238123 0)
(8.11592 0.00233368 0)
(8.11431 0.00228667 0)
(8.11274 0.00224017 0)
(8.1112 0.00219419 0)
(8.10969 0.0021487 0)
(8.10821 0.00210369 0)
(8.10676 0.00205915 0)
(8.10534 0.00201508 0)
(8.10396 0.00197145 0)
(8.1026 0.00192826 0)
(8.10127 0.0018855 0)
(8.09997 0.00184316 0)
(8.0987 0.00180123 0)
(8.09746 0.0017597 0)
(8.09625 0.00171857 0)
(8.09507 0.00167782 0)
(8.09391 0.00163744 0)
(8.09278 0.00159744 0)
(8.09168 0.0015578 0)
(8.0906 0.00151851 0)
(8.08955 0.00147957 0)
(8.08853 0.00144098 0)
(8.08754 0.00140272 0)
(8.08657 0.00136479 0)
(8.08562 0.00132719 0)
(8.08471 0.00128991 0)
(8.08381 0.00125294 0)
(8.08295 0.00121628 0)
(8.0821 0.00117993 0)
(8.08128 0.00114389 0)
(8.08049 0.00110814 0)
(8.07972 0.00107268 0)
(8.07898 0.00103752 0)
(8.07826 0.00100264 0)
(8.07756 0.000968048 0)
(8.07688 0.000933736 0)
(8.07623 0.000899702 0)
(8.0756 0.000865944 0)
(8.075 0.000832458 0)
(8.07442 0.000799244 0)
(8.07386 0.000766298 0)
(8.07332 0.000733618 0)
(8.0728 0.000701203 0)
(8.07231 0.000669051 0)
(8.07184 0.000637161 0)
(8.07139 0.00060553 0)
(8.07096 0.000574158 0)
(8.07055 0.000543043 0)
(8.07017 0.000512185 0)
(8.0698 0.000481582 0)
(8.06946 0.000451233 0)
(8.06913 0.000421138 0)
(8.06883 0.000391297 0)
(8.06854 0.000361708 0)
(8.06828 0.000332371 0)
(8.06803 0.000303286 0)
(8.06781 0.000274452 0)
(8.0676 0.00024587 0)
(8.06742 0.000217539 0)
(8.06725 0.00018946 0)
(8.0671 0.000161632 0)
(8.06697 0.000134055 0)
(8.06686 0.00010673 0)
(8.06677 7.96576e-05 0)
(8.0667 5.28368e-05 0)
(8.06664 2.62689e-05 0)
(8.0666 -4.60755e-08 0)
(8.06658 -2.61073e-05 0)
(8.06658 -5.19146e-05 0)
(8.0666 -7.7467e-05 0)
(8.06663 -0.000102764 0)
(8.06668 -0.000127805 0)
(8.06674 -0.00015259 0)
(8.06682 -0.000177117 0)
(8.06692 -0.000201386 0)
(8.06704 -0.000225396 0)
(8.06717 -0.000249147 0)
(8.06732 -0.000272637 0)
(8.06748 -0.000295867 0)
(8.06766 -0.000318834 0)
(8.06785 -0.000341538 0)
(8.06806 -0.000363978 0)
(8.06829 -0.000386155 0)
(8.06853 -0.000408066 0)
(8.06878 -0.000429711 0)
(8.06905 -0.000451089 0)
(8.06933 -0.0004722 0)
(8.06963 -0.000493042 0)
(8.06994 -0.000513616 0)
(8.07026 -0.00053392 0)
(8.0706 -0.000553954 0)
(8.07095 -0.000573716 0)
(8.07132 -0.000593208 0)
(8.0717 -0.000612427 0)
(8.07209 -0.000631373 0)
(8.07249 -0.000650047 0)
(8.07291 -0.000668447 0)
(8.07334 -0.000686574 0)
(8.07378 -0.000704426 0)
(8.07423 -0.000722005 0)
(8.0747 -0.000739309 0)
(8.07517 -0.000756338 0)
(8.07566 -0.000773092 0)
(8.07616 -0.000789572 0)
(8.07667 -0.000805778 0)
(8.07719 -0.000821709 0)
(8.07772 -0.000837366 0)
(8.07827 -0.000852748 0)
(8.07882 -0.000867858 0)
(8.07938 -0.000882694 0)
(8.07996 -0.000897258 0)
(8.08054 -0.000911549 0)
(8.08113 -0.00092557 0)
(8.08173 -0.00093932 0)
(8.08234 -0.0009528 0)
(8.08296 -0.000966011 0)
(8.08359 -0.000978954 0)
(8.08423 -0.000991631 0)
(8.08488 -0.00100404 0)
(8.08553 -0.00101619 0)
(8.08619 -0.00102807 0)
(8.08686 -0.00103969 0)
(8.08754 -0.00105106 0)
(8.08823 -0.00106216 0)
(8.08892 -0.00107301 0)
(8.08962 -0.0010836 0)
(8.09033 -0.00109394 0)
(8.09105 -0.00110403 0)
(8.09177 -0.00111387 0)
(8.0925 -0.00112347 0)
(8.09323 -0.00113282 0)
(8.09397 -0.00114193 0)
(8.09472 -0.0011508 0)
(8.09547 -0.00115943 0)
(8.09623 -0.00116783 0)
(8.097 -0.001176 0)
(8.09777 -0.00118395 0)
(8.09854 -0.00119167 0)
(8.09932 -0.00119917 0)
(8.10011 -0.00120646 0)
(8.1009 -0.00121353 0)
(8.1017 -0.00122039 0)
(8.1025 -0.00122705 0)
(8.1033 -0.00123351 0)
(8.10411 -0.00123978 0)
(8.10492 -0.00124585 0)
(8.10574 -0.00125174 0)
(8.10656 -0.00125745 0)
(8.10739 -0.00126299 0)
(8.10822 -0.00126835 0)
(8.10905 -0.00127356 0)
(8.10989 -0.0012786 0)
(8.11073 -0.0012835 0)
(8.11157 -0.00128826 0)
(8.11241 -0.00129288 0)
(8.11326 -0.00129737 0)
(8.11411 -0.00130175 0)
(8.11497 -0.00130601 0)
(8.11583 -0.00131018 0)
(8.11669 -0.00131425 0)
(8.11755 -0.00131823 0)
(8.11842 -0.00132215 0)
(8.11928 -0.001326 0)
(8.12015 -0.00132981 0)
(8.12103 -0.00133357 0)
(8.1219 -0.00133731 0)
(8.12278 -0.00134104 0)
(8.12366 -0.00134476 0)
(8.12454 -0.0013485 0)
(8.12543 -0.00135226 0)
(8.12632 -0.00135606 0)
(8.12721 -0.00135992 0)
(8.1281 -0.00136386 0)
(8.12899 -0.00136788 0)
(8.12989 -0.00137201 0)
(8.13079 -0.00137627 0)
(8.13169 -0.00138066 0)
(8.1326 -0.00138522 0)
(8.13351 -0.00138996 0)
(8.13442 -0.00139489 0)
(8.13533 -0.00140005 0)
(8.13625 -0.00140544 0)
(8.13717 -0.0014111 0)
(8.13809 -0.00141704 0)
(8.13902 -0.00142329 0)
(8.13995 -0.00142987 0)
(8.14088 -0.0014368 0)
(8.14182 -0.0014441 0)
(8.14276 -0.00145181 0)
(8.14371 -0.00145994 0)
(8.14467 -0.00146852 0)
(8.14562 -0.00147758 0)
(8.14659 -0.00148714 0)
(8.14756 -0.00149723 0)
(8.14853 -0.00150788 0)
(8.14951 -0.00151911 0)
(8.1505 -0.00153095 0)
(8.1515 -0.00154344 0)
(8.1525 -0.00155659 0)
(8.15351 -0.00157044 0)
(8.15453 -0.00158503 0)
(8.15556 -0.00160037 0)
(8.1566 -0.00161651 0)
(8.15765 -0.00163347 0)
(8.15871 -0.00165129 0)
(8.15978 -0.00167001 0)
(8.16086 -0.00168965 0)
(8.16195 -0.00171025 0)
(8.16306 -0.00173185 0)
(8.16418 -0.00175448 0)
(8.16531 -0.00177819 0)
(8.16646 -0.00180302 0)
(8.16762 -0.001829 0)
(8.1688 -0.00185618 0)
(8.17 -0.0018846 0)
(8.17121 -0.0019143 0)
(8.17244 -0.00194535 0)
(8.17369 -0.00197777 0)
(8.17496 -0.00201163 0)
(8.17626 -0.00204697 0)
(8.17757 -0.00208385 0)
(8.17891 -0.00212233 0)
(8.18027 -0.00216246 0)
(8.18165 -0.00220431 0)
(8.18306 -0.00224793 0)
(8.1845 -0.00229339 0)
(8.18597 -0.00234076 0)
(8.18747 -0.0023901 0)
(8.18899 -0.0024415 0)
(8.19055 -0.00249502 0)
(8.19214 -0.00255073 0)
(8.19377 -0.00260873 0)
(8.19543 -0.00266909 0)
(8.19713 -0.00273189 0)
(8.19887 -0.00279722 0)
(8.20065 -0.00286517 0)
(8.20247 -0.00293583 0)
(8.20434 -0.00300929 0)
(8.20625 -0.00308565 0)
(8.20821 -0.00316499 0)
(8.21022 -0.00324743 0)
(8.21228 -0.00333305 0)
(8.21439 -0.00342195 0)
(8.21656 -0.00351425 0)
(8.21879 -0.00361002 0)
(8.22108 -0.00370939 0)
(8.22343 -0.00381244 0)
(8.22584 -0.00391927 0)
(8.22832 -0.00402998 0)
(8.23087 -0.00414466 0)
(8.2335 -0.00426341 0)
(8.23619 -0.00438631 0)
(8.23897 -0.00451344 0)
(8.24182 -0.00464489 0)
(8.24476 -0.00478073 0)
(8.24778 -0.00492101 0)
(8.2509 -0.00506581 0)
(8.2541 -0.00521516 0)
(8.2574 -0.0053691 0)
(8.2608 -0.00552767 0)
(8.26429 -0.00569088 0)
(8.26789 -0.00585871 0)
(8.2716 -0.00603117 0)
(8.27542 -0.00620822 0)
(8.27935 -0.00638981 0)
(8.2834 -0.00657586 0)
(8.28757 -0.00676629 0)
(8.29186 -0.00696098 0)
(8.29628 -0.00715979 0)
(8.30082 -0.00736255 0)
(8.3055 -0.00756906 0)
(8.3103 -0.00777909 0)
(8.31525 -0.00799236 0)
(8.32033 -0.00820852 0)
(8.32556 -0.00842719 0)
(8.33093 -0.00864787 0)
(8.33644 -0.00886994 0)
(8.3421 -0.00909269 0)
(8.3479 -0.00931511 0)
(8.35385 -0.00953622 0)
(8.35996 -0.00975364 0)
(8.36618 -0.00996787 0)
(8.37266 -0.0101636 0)
(8.3787 -0.010379 0)
(8.38793 -0.0104144 0)
(9.94546 0.725989 0)
(9.82597 0.524081 0)
(9.67686 0.393794 0)
(9.54203 0.299193 0)
(9.42458 0.230718 0)
(9.32183 0.183515 0)
(9.23371 0.150468 0)
(9.15853 0.126344 0)
(9.09365 0.108286 0)
(9.03705 0.0944937 0)
(8.98725 0.083697 0)
(8.94305 0.0750435 0)
(8.90346 0.0679722 0)
(8.86773 0.0620966 0)
(8.83524 0.0571416 0)
(8.80551 0.0529084 0)
(8.77816 0.0492513 0)
(8.75286 0.0460606 0)
(8.72935 0.0432525 0)
(8.70741 0.0407622 0)
(8.68687 0.0385385 0)
(8.66757 0.0365404 0)
(8.64937 0.0347352 0)
(8.63217 0.0330959 0)
(8.61588 0.0316004 0)
(8.6004 0.0302304 0)
(8.58567 0.0289704 0)
(8.57162 0.0278076 0)
(8.5582 0.0267308 0)
(8.54535 0.0257308 0)
(8.53304 0.0247993 0)
(8.52122 0.0239294 0)
(8.50986 0.0231151 0)
(8.49893 0.0223509 0)
(8.48839 0.0216323 0)
(8.47823 0.0209552 0)
(8.46842 0.0203159 0)
(8.45894 0.0197113 0)
(8.44977 0.0191385 0)
(8.44089 0.0185949 0)
(8.43229 0.0180783 0)
(8.42395 0.0175865 0)
(8.41586 0.0171179 0)
(8.408 0.0166706 0)
(8.40036 0.0162432 0)
(8.39294 0.0158343 0)
(8.38572 0.0154427 0)
(8.37869 0.0150671 0)
(8.37185 0.0147067 0)
(8.36519 0.0143604 0)
(8.35869 0.0140273 0)
(8.35235 0.0137067 0)
(8.34618 0.0133978 0)
(8.34015 0.0130999 0)
(8.33426 0.0128124 0)
(8.32851 0.0125347 0)
(8.3229 0.0122663 0)
(8.31741 0.0120066 0)
(8.31205 0.0117553 0)
(8.3068 0.0115118 0)
(8.30168 0.0112758 0)
(8.29666 0.0110469 0)
(8.29175 0.0108247 0)
(8.28694 0.010609 0)
(8.28224 0.0103993 0)
(8.27763 0.0101955 0)
(8.27312 0.00999721 0)
(8.2687 0.00980421 0)
(8.26437 0.00961626 0)
(8.26013 0.00943314 0)
(8.25597 0.00925463 0)
(8.2519 0.00908054 0)
(8.2479 0.00891068 0)
(8.24399 0.00874486 0)
(8.24014 0.00858293 0)
(8.23638 0.00842472 0)
(8.23268 0.00827007 0)
(8.22905 0.00811886 0)
(8.2255 0.00797094 0)
(8.22201 0.00782619 0)
(8.21858 0.00768447 0)
(8.21522 0.00754569 0)
(8.21193 0.00740972 0)
(8.20869 0.00727647 0)
(8.20551 0.00714582 0)
(8.2024 0.0070177 0)
(8.19933 0.006892 0)
(8.19633 0.00676864 0)
(8.19338 0.00664753 0)
(8.19048 0.00652861 0)
(8.18764 0.00641179 0)
(8.18485 0.00629701 0)
(8.18211 0.00618418 0)
(8.17942 0.00607326 0)
(8.17678 0.00596417 0)
(8.17419 0.00585685 0)
(8.17164 0.00575126 0)
(8.16914 0.00564732 0)
(8.16669 0.00554499 0)
(8.16428 0.00544422 0)
(8.16192 0.00534496 0)
(8.15959 0.00524717 0)
(8.15732 0.00515079 0)
(8.15508 0.00505578 0)
(8.15289 0.00496211 0)
(8.15073 0.00486973 0)
(8.14862 0.00477861 0)
(8.14654 0.00468871 0)
(8.14451 0.00459999 0)
(8.14251 0.00451242 0)
(8.14055 0.00442596 0)
(8.13863 0.0043406 0)
(8.13675 0.00425628 0)
(8.1349 0.004173 0)
(8.13309 0.00409071 0)
(8.13131 0.0040094 0)
(8.12957 0.00392903 0)
(8.12786 0.00384958 0)
(8.12619 0.00377103 0)
(8.12455 0.00369336 0)
(8.12294 0.00361654 0)
(8.12137 0.00354055 0)
(8.11983 0.00346537 0)
(8.11832 0.00339099 0)
(8.11684 0.00331738 0)
(8.1154 0.00324452 0)
(8.11398 0.0031724 0)
(8.1126 0.00310101 0)
(8.11125 0.00303031 0)
(8.10992 0.00296031 0)
(8.10863 0.00289099 0)
(8.10737 0.00282233 0)
(8.10613 0.00275431 0)
(8.10492 0.00268693 0)
(8.10375 0.00262018 0)
(8.1026 0.00255403 0)
(8.10148 0.00248849 0)
(8.10038 0.00242353 0)
(8.09932 0.00235916 0)
(8.09828 0.00229535 0)
(8.09726 0.0022321 0)
(8.09628 0.0021694 0)
(8.09532 0.00210725 0)
(8.09439 0.00204563 0)
(8.09348 0.00198454 0)
(8.0926 0.00192396 0)
(8.09174 0.0018639 0)
(8.09091 0.00180434 0)
(8.0901 0.00174529 0)
(8.08932 0.00168672 0)
(8.08856 0.00162865 0)
(8.08783 0.00157106 0)
(8.08712 0.00151394 0)
(8.08644 0.0014573 0)
(8.08578 0.00140113 0)
(8.08514 0.00134542 0)
(8.08453 0.00129017 0)
(8.08393 0.00123539 0)
(8.08337 0.00118105 0)
(8.08282 0.00112717 0)
(8.0823 0.00107373 0)
(8.0818 0.00102074 0)
(8.08132 0.000968198 0)
(8.08086 0.000916094 0)
(8.08042 0.000864429 0)
(8.08001 0.000813202 0)
(8.07962 0.00076241 0)
(8.07925 0.000712054 0)
(8.07889 0.000662131 0)
(8.07856 0.00061264 0)
(8.07825 0.00056358 0)
(8.07796 0.000514952 0)
(8.0777 0.000466753 0)
(8.07745 0.000418984 0)
(8.07722 0.000371644 0)
(8.07701 0.000324734 0)
(8.07682 0.000278252 0)
(8.07664 0.0002322 0)
(8.07649 0.000186577 0)
(8.07636 0.000141383 0)
(8.07624 9.6619e-05 0)
(8.07615 5.22852e-05 0)
(8.07607 8.38192e-06 0)
(8.07601 -3.50899e-05 0)
(8.07597 -7.81298e-05 0)
(8.07594 -0.000120737 0)
(8.07593 -0.00016291 0)
(8.07594 -0.000204649 0)
(8.07597 -0.000245952 0)
(8.07602 -0.000286819 0)
(8.07608 -0.000327249 0)
(8.07616 -0.00036724 0)
(8.07625 -0.000406792 0)
(8.07636 -0.000445903 0)
(8.07649 -0.000484573 0)
(8.07663 -0.0005228 0)
(8.07679 -0.000560583 0)
(8.07696 -0.00059792 0)
(8.07715 -0.000634812 0)
(8.07736 -0.000671257 6.02547e-103)
(8.07758 -0.000707253 -6.02526e-103)
(8.07781 -0.0007428 0)
(8.07806 -0.000777897 0)
(8.07832 -0.000812542 0)
(8.0786 -0.000846735 0)
(8.07889 -0.000880475 0)
(8.0792 -0.00091376 0)
(8.07951 -0.00094659 0)
(8.07985 -0.000978965 0)
(8.08019 -0.00101088 0)
(8.08055 -0.00104234 0)
(8.08092 -0.00107335 0)
(8.08131 -0.00110389 0)
(8.08171 -0.00113398 0)
(8.08212 -0.00116361 0)
(8.08254 -0.00119278 0)
(8.08297 -0.00122149 0)
(8.08342 -0.00124974 0)
(8.08387 -0.00127753 0)
(8.08434 -0.00130486 0)
(8.08482 -0.00133173 0)
(8.08531 -0.00135815 0)
(8.08581 -0.00138411 0)
(8.08633 -0.00140961 0)
(8.08685 -0.00143465 0)
(8.08738 -0.00145924 0)
(8.08793 -0.00148337 0)
(8.08848 -0.00150705 0)
(8.08904 -0.00153028 0)
(8.08961 -0.00155305 0)
(8.0902 -0.00157538 0)
(8.09079 -0.00159725 0)
(8.09139 -0.00161869 0)
(8.092 -0.00163967 0)
(8.09262 -0.00166022 0)
(8.09324 -0.00168032 0)
(8.09388 -0.00169999 0)
(8.09452 -0.00171922 0)
(8.09517 -0.00173801 0)
(8.09583 -0.00175638 0)
(8.09649 -0.00177432 0)
(8.09717 -0.00179184 0)
(8.09785 -0.00180893 0)
(8.09854 -0.00182561 0)
(8.09923 -0.00184187 0)
(8.09993 -0.00185773 0)
(8.10064 -0.00187318 0)
(8.10136 -0.00188822 0)
(8.10208 -0.00190287 0)
(8.1028 -0.00191713 0)
(8.10354 -0.00193099 0)
(8.10428 -0.00194448 0)
(8.10502 -0.00195758 0)
(8.10577 -0.00197032 0)
(8.10652 -0.00198269 0)
(8.10728 -0.00199469 0)
(8.10805 -0.00200635 0)
(8.10882 -0.00201766 0)
(8.10959 -0.00202862 0)
(8.11037 -0.00203925 0)
(8.11116 -0.00204956 0)
(8.11195 -0.00205955 0)
(8.11274 -0.00206923 0)
(8.11353 -0.00207861 0)
(8.11433 -0.0020877 0)
(8.11514 -0.00209651 0)
(8.11595 -0.00210505 0)
(8.11676 -0.00211332 0)
(8.11757 -0.00212135 0)
(8.11839 -0.00212914 0)
(8.11921 -0.0021367 0)
(8.12003 -0.00214405 0)
(8.12086 -0.0021512 0)
(8.12169 -0.00215817 0)
(8.12252 -0.00216497 0)
(8.12336 -0.00217161 0)
(8.1242 -0.00217811 0)
(8.12504 -0.00218449 0)
(8.12588 -0.00219076 0)
(8.12673 -0.00219695 0)
(8.12758 -0.00220308 0)
(8.12843 -0.00220915 0)
(8.12928 -0.0022152 0)
(8.13014 -0.00222125 0)
(8.13099 -0.00222732 0)
(8.13185 -0.00223342 0)
(8.13272 -0.0022396 0)
(8.13358 -0.00224587 0)
(8.13445 -0.00225225 0)
(8.13532 -0.00225878 0)
(8.13619 -0.00226549 0)
(8.13706 -0.00227239 0)
(8.13794 -0.00227953 0)
(8.13882 -0.00228693 0)
(8.1397 -0.00229463 0)
(8.14058 -0.00230266 0)
(8.14147 -0.00231104 0)
(8.14236 -0.00231982 0)
(8.14325 -0.00232903 0)
(8.14415 -0.00233871 0)
(8.14505 -0.00234889 0)
(8.14595 -0.00235961 0)
(8.14686 -0.00237092 0)
(8.14777 -0.00238284 0)
(8.14868 -0.00239542 0)
(8.1496 -0.0024087 0)
(8.15052 -0.00242272 0)
(8.15145 -0.00243752 0)
(8.15238 -0.00245316 0)
(8.15332 -0.00246966 0)
(8.15426 -0.00248708 0)
(8.15521 -0.00250545 0)
(8.15617 -0.00252484 0)
(8.15713 -0.00254528 0)
(8.1581 -0.00256682 0)
(8.15908 -0.00258951 0)
(8.16006 -0.0026134 0)
(8.16106 -0.00263854 0)
(8.16206 -0.00266499 0)
(8.16307 -0.00269279 0)
(8.16409 -0.002722 0)
(8.16512 -0.00275267 0)
(8.16616 -0.00278487 0)
(8.16721 -0.00281865 0)
(8.16828 -0.00285406 0)
(8.16935 -0.00289118 0)
(8.17044 -0.00293006 0)
(8.17154 -0.00297078 0)
(8.17266 -0.00301339 0)
(8.17379 -0.00305796 0)
(8.17494 -0.00310458 0)
(8.1761 -0.00315331 0)
(8.17728 -0.00320422 0)
(8.17848 -0.00325741 0)
(8.17969 -0.00331295 0)
(8.18093 -0.00337093 0)
(8.18218 -0.00343143 0)
(8.18346 -0.00349455 0)
(8.18476 -0.00356039 0)
(8.18608 -0.00362904 0)
(8.18743 -0.00370061 0)
(8.1888 -0.0037752 0)
(8.1902 -0.00385293 0)
(8.19162 -0.0039339 0)
(8.19308 -0.00401825 0)
(8.19456 -0.00410608 0)
(8.19607 -0.00419753 0)
(8.19762 -0.00429273 0)
(8.1992 -0.00439181 0)
(8.20081 -0.00449492 0)
(8.20247 -0.00460219 0)
(8.20415 -0.00471377 0)
(8.20588 -0.00482982 0)
(8.20765 -0.00495048 0)
(8.20946 -0.00507592 0)
(8.21132 -0.00520629 0)
(8.21322 -0.00534175 0)
(8.21518 -0.00548248 0)
(8.21718 -0.00562864 0)
(8.21923 -0.00578039 0)
(8.22134 -0.00593791 0)
(8.2235 -0.00610136 0)
(8.22572 -0.00627091 0)
(8.22801 -0.00644673 0)
(8.23035 -0.00662897 0)
(8.23276 -0.00681781 0)
(8.23524 -0.00701339 0)
(8.23779 -0.00721587 0)
(8.24042 -0.00742539 0)
(8.24312 -0.00764208 0)
(8.24589 -0.00786607 0)
(8.24875 -0.00809747 0)
(8.2517 -0.00833638 0)
(8.25473 -0.00858289 0)
(8.25785 -0.00883708 0)
(8.26107 -0.00909898 0)
(8.26438 -0.00936863 0)
(8.26779 -0.00964603 0)
(8.27131 -0.00993117 0)
(8.27493 -0.010224 0)
(8.27866 -0.0105244 0)
(8.2825 -0.0108324 0)
(8.28646 -0.0111477 0)
(8.29053 -0.0114701 0)
(8.29473 -0.0117995 0)
(8.29906 -0.0121355 0)
(8.30351 -0.0124778 0)
(8.30809 -0.0128259 0)
(8.31281 -0.0131794 0)
(8.31766 -0.0135377 0)
(8.32265 -0.0138999 0)
(8.32778 -0.0142653 0)
(8.33306 -0.0146326 0)
(8.33848 -0.0150005 0)
(8.34404 -0.0153671 0)
(8.34976 -0.0157297 0)
(8.35559 -0.0160859 0)
(8.36169 -0.016425 0)
(8.36739 -0.0167557 0)
(8.37617 -0.0169727 0)
(9.95588 0.782308 0)
(9.89615 0.625111 0)
(9.80208 0.503552 0)
(9.70137 0.409239 0)
(9.60377 0.335323 0)
(9.51099 0.278478 0)
(9.42517 0.234865 0)
(9.34747 0.200921 0)
(9.2775 0.174169 0)
(9.21449 0.152864 0)
(9.15766 0.135675 0)
(9.10628 0.121612 0)
(9.05964 0.109955 0)
(9.01712 0.100177 0)
(8.97818 0.0918826 0)
(8.94238 0.0847737 0)
(8.90932 0.0786237 0)
(8.87869 0.073258 0)
(8.85019 0.0685404 0)
(8.82358 0.0643635 0)
(8.79868 0.0606416 0)
(8.77529 0.057306 0)
(8.75328 0.0543005 0)
(8.73249 0.0515793 0)
(8.71283 0.0491044 0)
(8.69419 0.0468441 0)
(8.67648 0.044772 0)
(8.65963 0.0428656 0)
(8.64355 0.0411058 0)
(8.62821 0.0394765 0)
(8.61352 0.0379634 0)
(8.59946 0.0365547 0)
(8.58597 0.0352398 0)
(8.57302 0.0340095 0)
(8.56057 0.0328558 0)
(8.54858 0.0317717 0)
(8.53703 0.030751 0)
(8.52589 0.0297882 0)
(8.51513 0.0288783 0)
(8.50474 0.028017 0)