/*--------------------------------*- C++ -*----------------------------------*\
| =========                 |                                                 |
| \\      /  F ield         | OpenFOAM: The Open Source CFD Toolbox           |
|  \\    /   O peration     | Version:  2506                                  |
|   \\  /    A nd           | Website:  www.openfoam.com                      |
|    \\/     M anipulation  |                                                 |
\*---------------------------------------------------------------------------*/
FoamFile
{
    version     2.0;
    format      ascii;
    arch        "LSB;label=32;scalar=64";
    class       volScalarField;
    location    "800";
    object      epsilon;
}
// * * * * * * * * * * * * * * * * * * * * * * * * * * * * * * * * * * * * * //

dimensions      [0 2 -3 0 0 0 0];

internalField   nonuniform List<scalar> 
131949
(
0.427376
0.492067
0.494247
0.487068
0.480358
0.474538
0.469357
0.464769
0.46069
0.457007
0.453634
0.450511
0.447589
0.444834
0.442216
0.439715
0.437313
0.434998
0.432757
0.430582
0.428466
0.426402
0.424386
0.422412
0.420477
0.418578
0.416711
0.414875
0.413068
0.411286
0.40953
0.407797
0.406085
0.404395
0.402724
0.401072
0.399437
0.39782
0.396219
0.394634
0.393064
0.391509
0.389967
0.38844
0.386925
0.385423
0.383934
0.382456
0.380991
0.379536
0.378093
0.376661
0.375239
0.373828
0.372427
0.371036
0.369655
0.368283
0.36692
0.365567
0.364223
0.362888
0.361561
0.360243
0.358934
0.357633
0.35634
0.355055
0.353778
0.35251
0.351248
0.349995
0.348749
0.347511
0.34628
0.345056
0.343839
0.34263
0.341428
0.340232
0.339044
0.337862
0.336687
0.335519
0.334357
0.333202
0.332053
0.330911
0.329775
0.328645
0.327522
0.326404
0.325293
0.324188
0.323089
0.321996
0.320908
0.319827
0.318751
0.317681
0.316617
0.315558
0.314505
0.313457
0.312415
0.311379
0.310347
0.309322
0.308301
0.307286
0.306276
0.305271
0.304272
0.303277
0.302288
0.301304
0.300324
0.29935
0.29838
0.297416
0.296456
0.295502
0.294551
0.293606
0.292666
0.29173
0.290799
0.289872
0.28895
0.288033
0.28712
0.286211
0.285308
0.284408
0.283513
0.282622
0.281736
0.280854
0.279976
0.279103
0.278234
0.277369
0.276508
0.275651
0.274799
0.27395
0.273106
0.272266
0.271429
0.270597
0.269769
0.268944
0.268124
0.267307
0.266494
0.265686
0.264881
0.264079
0.263282
0.262488
0.261698
0.260912
0.260129
0.25935
0.258575
0.257804
0.257036
0.256271
0.25551
0.254753
0.253999
0.253248
0.252502
0.251758
0.251018
0.250281
0.249548
0.248818
0.248092
0.247368
0.246649
0.245932
0.245219
0.244509
0.243802
0.243098
0.242398
0.2417
0.241006
0.240315
0.239627
0.238943
0.238261
0.237582
0.236907
0.236234
0.235565
0.234898
0.234235
0.233574
0.232916
0.232262
0.23161
0.230961
0.230315
0.229672
0.229032
0.228394
0.227759
0.227128
0.226498
0.225872
0.225249
0.224628
0.22401
0.223394
0.222781
0.222171
0.221564
0.220959
0.220357
0.219758
0.219161
0.218566
0.217975
0.217385
0.216799
0.216214
0.215633
0.215054
0.214477
0.213903
0.213331
0.212762
0.212195
0.21163
0.211068
0.210509
0.209951
0.209396
0.208844
0.208293
0.207745
0.2072
0.206656
0.206115
0.205576
0.20504
0.204505
0.203973
0.203443
0.202916
0.20239
0.201867
0.201346
0.200827
0.20031
0.199795
0.199283
0.198772
0.198264
0.197757
0.197253
0.196751
0.196251
0.195753
0.195257
0.194763
0.19427
0.19378
0.193292
0.192806
0.192322
0.19184
0.19136
0.190881
0.190405
0.18993
0.189458
0.188987
0.188518
0.188051
0.187586
0.187123
0.186661
0.186201
0.185744
0.185288
0.184833
0.184381
0.18393
0.183481
0.183034
0.182589
0.182145
0.181703
0.181263
0.180824
0.180388
0.179952
0.179519
0.179087
0.178657
0.178229
0.177802
0.177377
0.176953
0.176531
0.176111
0.175692
0.175275
0.17486
0.174446
0.174033
0.173622
0.173213
0.172805
0.172399
0.171994
0.171591
0.17119
0.170789
0.170391
0.169994
0.169598
0.169204
0.168811
0.16842
0.16803
0.167641
0.167254
0.166869
0.166485
0.166102
0.165721
0.165341
0.164962
0.164585
0.164209
0.163835
0.163462
0.16309
0.16272
0.162351
0.161983
0.161616
0.161251
0.160888
0.160525
0.160164
0.159804
0.159446
0.159088
0.158732
0.158377
0.158024
0.157672
0.157321
0.156971
0.156622
0.156275
0.155929
0.155584
0.15524
0.154898
0.154556
0.154216
0.153877
0.153539
0.153203
0.152867
0.152533
0.1522
0.151868
0.151537
0.151207
0.150879
0.150551
0.150225
0.1499
0.149575
0.149252
0.14893
0.14861
0.14829
0.147971
0.147653
0.147337
0.147021
0.146707
0.146393
0.146081
0.145769
0.145459
0.14515
0.144842
0.144535
0.144232
0.143941
0.143702
0.270384
0.330571
0.37502
0.402595
0.419761
0.430198
0.436093
0.439156
0.440497
0.440759
0.440326
0.439444
0.438266
0.436893
0.43539
0.433799
0.432152
0.430468
0.428761
0.427042
0.425318
0.423593
0.421872
0.420158
0.418452
0.416755
0.415069
0.413394
0.411731
0.41008
0.408441
0.406814
0.405199
0.403597
0.402006
0.400428
0.398861
0.397306
0.395763
0.394231
0.392709
0.391199
0.3897
0.388211
0.386733
0.385265
0.383807
0.382358
0.38092
0.379492
0.378072
0.376663
0.375262
0.373871
0.372488
0.371114
0.36975
0.368393
0.367045
0.365706
0.364374
0.363051
0.361736
0.360429
0.35913
0.357839
0.356555
0.355279
0.35401
0.352749
0.351495
0.350249
0.349009
0.347777
0.346552
0.345334
0.344122
0.342918
0.34172
0.340529
0.339345
0.338167
0.336996
0.335831
0.334672
0.33352
0.332375
0.331235
0.330102
0.328974
0.327853
0.326738
0.325629
0.324526
0.323428
0.322337
0.321251
0.320171
0.319096
0.318028
0.316964
0.315907
0.314855
0.313808
0.312767
0.311731
0.3107
0.309675
0.308655
0.307641
0.306631
0.305627
0.304627
0.303633
0.302644
0.30166
0.300681
0.299706
0.298737
0.297772
0.296813
0.295858
0.294908
0.293962
0.293021
0.292085
0.291154
0.290227
0.289305
0.288387
0.287474
0.286565
0.285661
0.284761
0.283865
0.282974
0.282087
0.281205
0.280326
0.279452
0.278583
0.277717
0.276856
0.275998
0.275145
0.274296
0.273451
0.27261
0.271773
0.27094
0.270111
0.269286
0.268465
0.267647
0.266834
0.266024
0.265218
0.264416
0.263618
0.262824
0.262033
0.261246
0.260463
0.259683
0.258907
0.258134
0.257365
0.2566
0.255838
0.25508
0.254325
0.253574
0.252826
0.252082
0.251341
0.250604
0.249869
0.249139
0.248411
0.247687
0.246967
0.246249
0.245535
0.244824
0.244116
0.243412
0.24271
0.242012
0.241317
0.240625
0.239937
0.239251
0.238568
0.237889
0.237212
0.236539
0.235869
0.235201
0.234537
0.233876
0.233217
0.232561
0.231909
0.231259
0.230612
0.229968
0.229327
0.228689
0.228053
0.22742
0.226791
0.226163
0.225539
0.224917
0.224298
0.223682
0.223069
0.222458
0.221849
0.221244
0.220641
0.220041
0.219443
0.218848
0.218255
0.217665
0.217077
0.216492
0.21591
0.21533
0.214753
0.214178
0.213605
0.213035
0.212467
0.211902
0.211339
0.210779
0.21022
0.209665
0.209111
0.20856
0.208012
0.207465
0.206921
0.206379
0.205839
0.205302
0.204767
0.204234
0.203704
0.203175
0.202649
0.202125
0.201603
0.201083
0.200566
0.20005
0.199537
0.199025
0.198516
0.198009
0.197504
0.197001
0.196501
0.196002
0.195505
0.19501
0.194517
0.194027
0.193538
0.193051
0.192566
0.192083
0.191602
0.191123
0.190646
0.190171
0.189698
0.189226
0.188757
0.188289
0.187823
0.187359
0.186897
0.186437
0.185978
0.185521
0.185067
0.184613
0.184162
0.183713
0.183265
0.182819
0.182374
0.181932
0.181491
0.181052
0.180614
0.180179
0.179744
0.179312
0.178881
0.178452
0.178025
0.177599
0.177175
0.176752
0.176331
0.175912
0.175494
0.175078
0.174664
0.174251
0.173839
0.173429
0.173021
0.172614
0.172209
0.171805
0.171403
0.171002
0.170603
0.170205
0.169809
0.169414
0.169021
0.168629
0.168238
0.167849
0.167462
0.167076
0.166691
0.166308
0.165926
0.165545
0.165166
0.164788
0.164412
0.164037
0.163663
0.163291
0.16292
0.162551
0.162182
0.161816
0.16145
0.161086
0.160723
0.160361
0.160001
0.159641
0.159284
0.158927
0.158572
0.158218
0.157865
0.157513
0.157163
0.156814
0.156466
0.156119
0.155774
0.15543
0.155087
0.154745
0.154404
0.154065
0.153727
0.153389
0.153054
0.152719
0.152385
0.152053
0.151721
0.151391
0.151062
0.150734
0.150407
0.150081
0.149757
0.149433
0.149111
0.148789
0.148469
0.14815
0.147832
0.147515
0.147199
0.146884
0.14657
0.146257
0.145945
0.145634
0.145324
0.145016
0.144709
0.144405
0.144114
0.143875
0.228178
0.258029
0.288821
0.31625
0.339563
0.358691
0.373778
0.385404
0.394261
0.400941
0.405918
0.409573
0.412202
0.414033
0.415238
0.415949
0.416269
0.416276
0.416031
0.415583
0.41497
0.414222
0.413362
0.412411
0.411384
0.410295
0.409153
0.407968
0.406747
0.405496
0.404221
0.402925
0.401613
0.400287
0.39895
0.397605
0.396253
0.394896
0.393535
0.392173
0.390809
0.389444
0.388081
0.386718
0.385358
0.384
0.382645
0.381293
0.379945
0.378601
0.377262
0.375927
0.374596
0.373271
0.371951
0.370636
0.369327
0.368023
0.366725
0.365432
0.364145
0.362864
0.361589
0.36032
0.359056
0.357799
0.356547
0.355302
0.354062
0.352829
0.351601
0.35038
0.349164
0.347955
0.346751
0.345553
0.344361
0.343176
0.341996
0.340822
0.339653
0.338491
0.337335
0.336184
0.335039
0.333899
0.332766
0.331638
0.330516
0.329399
0.328288
0.327182
0.326082
0.324988
0.323899
0.322815
0.321737
0.320664
0.319597
0.318534
0.317478
0.316426
0.31538
0.314338
0.313302
0.312271
0.311246
0.310225
0.309209
0.308198
0.307193
0.306192
0.305196
0.304205
0.303219
0.302238
0.301261
0.300289
0.299323
0.29836
0.297403
0.29645
0.295502
0.294558
0.293619
0.292684
0.291754
0.290829
0.289908
0.288991
0.288079
0.287171
0.286267
0.285368
0.284473
0.283583
0.282697
0.281814
0.280937
0.280063
0.279193
0.278328
0.277467
0.276609
0.275756
0.274907
0.274062
0.273221
0.272383
0.27155
0.270721
0.269895
0.269074
0.268256
0.267442
0.266632
0.265826
0.265023
0.264224
0.263429
0.262638
0.26185
0.261066
0.260285
0.259508
0.258735
0.257965
0.257199
0.256437
0.255678
0.254922
0.25417
0.253421
0.252676
0.251934
0.251195
0.25046
0.249728
0.249
0.248275
0.247553
0.246834
0.246119
0.245407
0.244698
0.243992
0.24329
0.24259
0.241894
0.241201
0.240511
0.239824
0.239141
0.23846
0.237782
0.237108
0.236436
0.235767
0.235102
0.234439
0.233779
0.233122
0.232468
0.231817
0.231169
0.230524
0.229881
0.229242
0.228605
0.227971
0.22734
0.226711
0.226085
0.225462
0.224842
0.224225
0.22361
0.222998
0.222388
0.221781
0.221177
0.220575
0.219976
0.21938
0.218786
0.218194
0.217605
0.217019
0.216435
0.215854
0.215275
0.214699
0.214125
0.213554
0.212985
0.212418
0.211854
0.211292
0.210733
0.210176
0.209621
0.209068
0.208518
0.207971
0.207425
0.206882
0.206341
0.205803
0.205266
0.204732
0.2042
0.20367
0.203143
0.202617
0.202094
0.201573
0.201054
0.200538
0.200023
0.19951
0.199
0.198492
0.197986
0.197481
0.196979
0.196479
0.195981
0.195485
0.194991
0.194499
0.194009
0.193521
0.193035
0.192551
0.192069
0.191588
0.19111
0.190633
0.190159
0.189686
0.189216
0.188747
0.18828
0.187814
0.187351
0.18689
0.18643
0.185972
0.185516
0.185062
0.184609
0.184158
0.183709
0.183262
0.182817
0.182373
0.181931
0.181491
0.181052
0.180615
0.18018
0.179746
0.179314
0.178884
0.178456
0.178029
0.177603
0.17718
0.176758
0.176337
0.175918
0.175501
0.175085
0.174671
0.174259
0.173848
0.173438
0.17303
0.172624
0.172219
0.171816
0.171414
0.171014
0.170615
0.170218
0.169822
0.169427
0.169034
0.168643
0.168253
0.167864
0.167477
0.167091
0.166707
0.166324
0.165942
0.165562
0.165184
0.164806
0.16443
0.164056
0.163682
0.16331
0.16294
0.16257
0.162203
0.161836
0.161471
0.161107
0.160744
0.160383
0.160022
0.159664
0.159306
0.15895
0.158595
0.158241
0.157889
0.157537
0.157187
0.156838
0.156491
0.156144
0.155799
0.155455
0.155113
0.154771
0.154431
0.154091
0.153753
0.153416
0.153081
0.152746
0.152413
0.15208
0.151749
0.151419
0.15109
0.150763
0.150436
0.15011
0.149786
0.149463
0.14914
0.148819
0.148499
0.14818
0.147862
0.147545
0.147229
0.146915
0.146601
0.146288
0.145976
0.145666
0.145356
0.145048
0.144744
0.144452
0.144212
0.214641
0.227086
0.24239
0.259352
0.276822
0.293837
0.309629
0.323787
0.336201
0.346914
0.356048
0.363768
0.370248
0.375654
0.380138
0.383835
0.38686
0.389311
0.391274
0.392818
0.394005
0.394883
0.395497
0.395883
0.396071
0.396087
0.395954
0.39569
0.395313
0.394837
0.394272
0.393631
0.392923
0.392155
0.391334
0.390467
0.389558
0.388614
0.387637
0.386632
0.385602
0.38455
0.383478
0.382389
0.381285
0.380167
0.379038
0.377899
0.376751
0.375596
0.374434
0.373267
0.372095
0.37092
0.369742
0.368562
0.36738
0.366196
0.365013
0.363829
0.362645
0.361462
0.360281
0.3591
0.357922
0.356745
0.35557
0.354398
0.353228
0.352062
0.350898
0.349737
0.34858
0.347426
0.346276
0.345129
0.343986
0.342847
0.341711
0.34058
0.339453
0.33833
0.337211
0.336096
0.334986
0.33388
0.332778
0.331681
0.330588
0.3295
0.328416
0.327336
0.326261
0.325191
0.324125
0.323064
0.322007
0.320955
0.319907
0.318864
0.317825
0.316791
0.315762
0.314737
0.313716
0.3127
0.311689
0.310682
0.30968
0.308682
0.307689
0.3067
0.305715
0.304735
0.30376
0.302789
0.301822
0.30086
0.299902
0.298948
0.297999
0.297054
0.296114
0.295178
0.294246
0.293318
0.292395
0.291475
0.29056
0.28965
0.288743
0.28784
0.286942
0.286048
0.285158
0.284272
0.28339
0.282512
0.281638
0.280768
0.279902
0.27904
0.278182
0.277328
0.276477
0.275631
0.274789
0.27395
0.273115
0.272284
0.271457
0.270634
0.269814
0.268998
0.268186
0.267377
0.266573
0.265771
0.264974
0.26418
0.26339
0.262603
0.26182
0.26104
0.260264
0.259492
0.258722
0.257957
0.257195
0.256436
0.255681
0.254929
0.25418
0.253435
0.252694
0.251955
0.25122
0.250488
0.24976
0.249034
0.248312
0.247594
0.246878
0.246166
0.245456
0.24475
0.244047
0.243348
0.242651
0.241957
0.241267
0.240579
0.239895
0.239214
0.238535
0.23786
0.237188
0.236518
0.235852
0.235188
0.234528
0.23387
0.233215
0.232563
0.231914
0.231268
0.230624
0.229984
0.229346
0.228711
0.228078
0.227449
0.226822
0.226198
0.225577
0.224958
0.224342
0.223728
0.223118
0.22251
0.221904
0.221301
0.220701
0.220103
0.219508
0.218915
0.218325
0.217738
0.217153
0.21657
0.21599
0.215412
0.214837
0.214264
0.213694
0.213126
0.212561
0.211997
0.211437
0.210878
0.210322
0.209768
0.209217
0.208668
0.208121
0.207576
0.207034
0.206494
0.205956
0.205421
0.204887
0.204356
0.203827
0.2033
0.202776
0.202253
0.201733
0.201215
0.200699
0.200185
0.199673
0.199163
0.198656
0.19815
0.197646
0.197145
0.196645
0.196148
0.195652
0.195159
0.194668
0.194178
0.19369
0.193205
0.192721
0.192239
0.19176
0.191282
0.190806
0.190332
0.18986
0.189389
0.188921
0.188454
0.187989
0.187526
0.187065
0.186606
0.186148
0.185693
0.185239
0.184786
0.184336
0.183887
0.18344
0.182995
0.182552
0.18211
0.18167
0.181232
0.180795
0.18036
0.179927
0.179495
0.179065
0.178637
0.17821
0.177785
0.177361
0.17694
0.176519
0.176101
0.175683
0.175268
0.174854
0.174442
0.174031
0.173622
0.173214
0.172808
0.172403
0.172
0.171598
0.171198
0.170799
0.170402
0.170006
0.169612
0.169219
0.168827
0.168437
0.168049
0.167662
0.167276
0.166892
0.166509
0.166127
0.165747
0.165369
0.164991
0.164615
0.164241
0.163867
0.163496
0.163125
0.162756
0.162388
0.162021
0.161656
0.161292
0.160929
0.160568
0.160208
0.159849
0.159491
0.159135
0.15878
0.158426
0.158074
0.157722
0.157372
0.157023
0.156676
0.156329
0.155984
0.15564
0.155297
0.154955
0.154615
0.154276
0.153938
0.153601
0.153265
0.15293
0.152597
0.152264
0.151933
0.151603
0.151274
0.150946
0.150619
0.150294
0.149969
0.149646
0.149323
0.149002
0.148682
0.148363
0.148045
0.147728
0.147412
0.147097
0.146783
0.14647
0.146158
0.145848
0.145538
0.145233
0.144939
0.144699
0.210104
0.215481
0.2225
0.231134
0.241112
0.252032
0.26341
0.274801
0.285865
0.296366
0.306154
0.315146
0.323318
0.330681
0.337269
0.343129
0.348317
0.352891
0.356906
0.360417
0.363473
0.366121
0.368402
0.370355
0.372012
0.373406
0.374563
0.375506
0.376258
0.376838
0.377263
0.377548
0.377706
0.377751
0.377693
0.377541
0.377305
0.376992
0.376609
0.376163
0.375659
0.375104
0.3745
0.373853
0.373167
0.372444
0.371689
0.370904
0.370091
0.369254
0.368394
0.367513
0.366613
0.365697
0.364764
0.363818
0.362858
0.361888
0.360906
0.359915
0.358916
0.357909
0.356895
0.355875
0.35485
0.35382
0.352786
0.351748
0.350707
0.349664
0.348618
0.347571
0.346523
0.345473
0.344423
0.343372
0.342322
0.341271
0.340221
0.339172
0.338124
0.337077
0.336031
0.334986
0.333944
0.332903
0.331864
0.330827
0.329793
0.32876
0.327731
0.326703
0.325679
0.324657
0.323638
0.322622
0.321609
0.320599
0.319592
0.318588
0.317587
0.31659
0.315596
0.314605
0.313618
0.312634
0.311654
0.310677
0.309703
0.308733
0.307767
0.306804
0.305845
0.30489
0.303938
0.30299
0.302045
0.301105
0.300168
0.299234
0.298304
0.297378
0.296456
0.295537
0.294623
0.293711
0.292804
0.2919
0.291
0.290104
0.289211
0.288322
0.287437
0.286556
0.285678
0.284804
0.283933
0.283067
0.282203
0.281344
0.280488
0.279636
0.278787
0.277942
0.277101
0.276263
0.275429
0.274599
0.273772
0.272948
0.272128
0.271312
0.270499
0.26969
0.268884
0.268081
0.267282
0.266487
0.265695
0.264906
0.264121
0.263339
0.262561
0.261786
0.261014
0.260246
0.259481
0.258719
0.257961
0.257206
0.256454
0.255706
0.254961
0.254219
0.25348
0.252744
0.252012
0.251283
0.250557
0.249834
0.249114
0.248398
0.247684
0.246974
0.246266
0.245562
0.244861
0.244163
0.243468
0.242776
0.242087
0.2414
0.240717
0.240037
0.23936
0.238686
0.238014
0.237346
0.23668
0.236017
0.235357
0.2347
0.234046
0.233395
0.232746
0.2321
0.231457
0.230817
0.230179
0.229544
0.228912
0.228283
0.227656
0.227032
0.226411
0.225792
0.225176
0.224562
0.223951
0.223343
0.222737
0.222134
0.221534
0.220935
0.22034
0.219747
0.219156
0.218568
0.217983
0.2174
0.216819
0.216241
0.215665
0.215092
0.214521
0.213952
0.213386
0.212822
0.21226
0.211701
0.211144
0.21059
0.210038
0.209488
0.20894
0.208394
0.207851
0.20731
0.206772
0.206235
0.205701
0.205169
0.204639
0.204111
0.203585
0.203062
0.20254
0.202021
0.201504
0.200989
0.200476
0.199965
0.199456
0.198949
0.198445
0.197942
0.197441
0.196943
0.196446
0.195951
0.195459
0.194968
0.194479
0.193992
0.193507
0.193024
0.192543
0.192064
0.191587
0.191112
0.190638
0.190166
0.189697
0.189229
0.188763
0.188298
0.187836
0.187375
0.186916
0.186459
0.186004
0.18555
0.185099
0.184649
0.1842
0.183754
0.183309
0.182866
0.182424
0.181985
0.181547
0.18111
0.180675
0.180242
0.179811
0.179381
0.178953
0.178527
0.178102
0.177678
0.177257
0.176837
0.176418
0.176001
0.175586
0.175172
0.17476
0.174349
0.17394
0.173532
0.173126
0.172722
0.172318
0.171917
0.171517
0.171118
0.170721
0.170325
0.169931
0.169538
0.169147
0.168757
0.168368
0.167981
0.167595
0.167211
0.166828
0.166446
0.166066
0.165688
0.16531
0.164934
0.164559
0.164186
0.163814
0.163443
0.163074
0.162706
0.162339
0.161974
0.16161
0.161247
0.160885
0.160525
0.160166
0.159808
0.159452
0.159097
0.158743
0.15839
0.158039
0.157688
0.157339
0.156991
0.156645
0.156299
0.155955
0.155612
0.15527
0.15493
0.15459
0.154252
0.153915
0.153579
0.153244
0.15291
0.152577
0.152246
0.151916
0.151586
0.151258
0.150931
0.150605
0.15028
0.149957
0.149634
0.149312
0.148992
0.148673
0.148354
0.148037
0.147721
0.147405
0.147091
0.146778
0.146466
0.146156
0.145849
0.145554
0.145312
0.208358
0.2109
0.214191
0.218358
0.223454
0.229447
0.236207
0.243547
0.251262
0.259159
0.267066
0.274837
0.282363
0.289561
0.296377
0.302777
0.308745
0.314278
0.319382
0.32407
0.328359
0.332271
0.335825
0.339046
0.341955
0.344573
0.346922
0.349022
0.350891
0.352546
0.354004
0.355281
0.356389
0.357342
0.358152
0.35883
0.359385
0.359828
0.360166
0.360409
0.360562
0.360632
0.360626
0.36055
0.360408
0.360205
0.359946
0.359634
0.359275
0.35887
0.358424
0.357939
0.357418
0.356863
0.356278
0.355663
0.355022
0.354356
0.353667
0.352956
0.352226
0.351477
0.350711
0.349928
0.349132
0.348321
0.347498
0.346663
0.345817
0.344962
0.344097
0.343223
0.342342
0.341454
0.340559
0.339658
0.338752
0.337841
0.336925
0.336006
0.335083
0.334156
0.333227
0.332295
0.331361
0.330425
0.329488
0.328549
0.327609
0.326669
0.325728
0.324786
0.323845
0.322903
0.321962
0.321021
0.320081
0.319142
0.318203
0.317265
0.316329
0.315394
0.31446
0.313528
0.312597
0.311668
0.310741
0.309816
0.308893
0.307971
0.307052
0.306135
0.305221
0.304308
0.303399
0.302491
0.301586
0.300683
0.299784
0.298886
0.297992
0.2971
0.296211
0.295324
0.294441
0.29356
0.292682
0.291807
0.290935
0.290066
0.289199
0.288336
0.287476
0.286618
0.285764
0.284913
0.284065
0.28322
0.282378
0.281539
0.280703
0.27987
0.27904
0.278213
0.27739
0.276569
0.275752
0.274938
0.274127
0.273319
0.272514
0.271712
0.270914
0.270118
0.269326
0.268537
0.267751
0.266967
0.266188
0.265411
0.264637
0.263866
0.263099
0.262334
0.261573
0.260814
0.260059
0.259307
0.258558
0.257812
0.257069
0.256328
0.255591
0.254857
0.254126
0.253398
0.252673
0.251951
0.251232
0.250516
0.249803
0.249092
0.248385
0.247681
0.246979
0.246281
0.245585
0.244892
0.244202
0.243515
0.242831
0.242149
0.241471
0.240795
0.240122
0.239452
0.238784
0.23812
0.237458
0.236799
0.236142
0.235489
0.234838
0.23419
0.233544
0.232901
0.232261
0.231623
0.230989
0.230356
0.229727
0.2291
0.228475
0.227854
0.227234
0.226618
0.226004
0.225392
0.224783
0.224176
0.223572
0.222971
0.222372
0.221775
0.221181
0.22059
0.22
0.219414
0.218829
0.218247
0.217668
0.21709
0.216516
0.215943
0.215373
0.214805
0.21424
0.213677
0.213116
0.212557
0.212001
0.211447
0.210895
0.210345
0.209798
0.209253
0.20871
0.208169
0.207631
0.207094
0.20656
0.206028
0.205498
0.204971
0.204445
0.203921
0.2034
0.202881
0.202363
0.201848
0.201335
0.200824
0.200315
0.199808
0.199303
0.1988
0.198299
0.1978
0.197303
0.196808
0.196315
0.195823
0.195334
0.194847
0.194361
0.193878
0.193396
0.192916
0.192439
0.191963
0.191488
0.191016
0.190546
0.190077
0.18961
0.189145
0.188682
0.18822
0.187761
0.187303
0.186847
0.186392
0.18594
0.185489
0.18504
0.184592
0.184147
0.183703
0.18326
0.18282
0.182381
0.181943
0.181508
0.181073
0.180641
0.18021
0.179781
0.179354
0.178928
0.178503
0.178081
0.17766
0.17724
0.176822
0.176406
0.175991
0.175577
0.175165
0.174755
0.174346
0.173939
0.173533
0.173129
0.172726
0.172325
0.171925
0.171527
0.17113
0.170734
0.17034
0.169948
0.169556
0.169167
0.168778
0.168391
0.168006
0.167622
0.167239
0.166858
0.166478
0.166099
0.165722
0.165346
0.164971
0.164598
0.164226
0.163855
0.163486
0.163118
0.162751
0.162386
0.162022
0.161659
0.161298
0.160937
0.160578
0.16022
0.159864
0.159509
0.159155
0.158802
0.15845
0.1581
0.157751
0.157403
0.157056
0.156711
0.156366
0.156023
0.155681
0.15534
0.155001
0.154662
0.154325
0.153988
0.153653
0.15332
0.152987
0.152655
0.152324
0.151995
0.151667
0.151339
0.151013
0.150688
0.150364
0.150041
0.14972
0.149399
0.149079
0.14876
0.148443
0.148126
0.147811
0.147496
0.147183
0.146871
0.146563
0.146267
0.146024
0.207572
0.208875
0.210512
0.212559
0.215095
0.218178
0.221822
0.225997
0.230647
0.235691
0.241041
0.246602
0.252284
0.258004
0.26369
0.269281
0.27473
0.279997
0.285055
0.289883
0.294469
0.298804
0.302888
0.30672
0.310306
0.313651
0.316762
0.319649
0.32232
0.324786
0.327057
0.329142
0.331052
0.332795
0.334382
0.335821
0.33712
0.338288
0.339333
0.340261
0.341081
0.341797
0.342417
0.342947
0.343391
0.343755
0.344044
0.344262
0.344414
0.344503
0.344533
0.344508
0.344431
0.344305
0.344134
0.343919
0.343663
0.343369
0.343039
0.342675
0.34228
0.341854
0.3414
0.34092
0.340414
0.339885
0.339334
0.338762
0.33817
0.33756
0.336933
0.336289
0.33563
0.334957
0.33427
0.333571
0.332859
0.332137
0.331404
0.330661
0.329909
0.329148
0.32838
0.327604
0.326821
0.326031
0.325236
0.324435
0.323629
0.322818
0.322002
0.321183
0.32036
0.319533
0.318703
0.317871
0.317036
0.316198
0.315359
0.314518
0.313675
0.312831
0.311985
0.311139
0.310292
0.309444
0.308596
0.307748
0.306899
0.306051
0.305202
0.304354
0.303506
0.302659
0.301813
0.300967
0.300122
0.299278
0.298435
0.297593
0.296753
0.295913
0.295075
0.294239
0.293404
0.29257
0.291739
0.290909
0.29008
0.289254
0.288429
0.287607
0.286786
0.285967
0.28515
0.284336
0.283523
0.282713
0.281905
0.281099
0.280296
0.279494
0.278695
0.277899
0.277105
0.276313
0.275523
0.274736
0.273952
0.27317
0.27239
0.271613
0.270839
0.270067
0.269297
0.26853
0.267766
0.267004
0.266245
0.265489
0.264735
0.263983
0.263235
0.262489
0.261745
0.261005
0.260266
0.259531
0.258798
0.258068
0.257341
0.256616
0.255894
0.255174
0.254457
0.253743
0.253032
0.252323
0.251616
0.250913
0.250212
0.249514
0.248818
0.248125
0.247435
0.246747
0.246062
0.24538
0.2447
0.244023
0.243348
0.242676
0.242007
0.24134
0.240676
0.240015
0.239356
0.238699
0.238045
0.237394
0.236745
0.236099
0.235456
0.234814
0.234176
0.23354
0.232906
0.232275
0.231646
0.23102
0.230397
0.229776
0.229157
0.228541
0.227927
0.227315
0.226706
0.2261
0.225496
0.224894
0.224295
0.223698
0.223103
0.222511
0.221921
0.221333
0.220748
0.220165
0.219585
0.219006
0.21843
0.217857
0.217285
0.216716
0.216149
0.215584
0.215022
0.214462
0.213904
0.213348
0.212794
0.212243
0.211693
0.211146
0.210601
0.210059
0.209518
0.208979
0.208443
0.207909
0.207377
0.206846
0.206318
0.205792
0.205269
0.204747
0.204227
0.203709
0.203193
0.20268
0.202168
0.201658
0.20115
0.200645
0.200141
0.199639
0.199139
0.198641
0.198145
0.197651
0.197159
0.196668
0.19618
0.195693
0.195209
0.194726
0.194245
0.193766
0.193288
0.192813
0.192339
0.191867
0.191397
0.190929
0.190463
0.189998
0.189535
0.189074
0.188615
0.188157
0.187701
0.187247
0.186794
0.186344
0.185894
0.185447
0.185001
0.184557
0.184115
0.183674
0.183235
0.182798
0.182362
0.181928
0.181495
0.181064
0.180635
0.180207
0.179781
0.179356
0.178933
0.178512
0.178092
0.177673
0.177257
0.176841
0.176427
0.176015
0.175604
0.175195
0.174787
0.174381
0.173976
0.173573
0.173171
0.172771
0.172372
0.171974
0.171578
0.171183
0.17079
0.170398
0.170008
0.169619
0.169231
0.168845
0.16846
0.168077
0.167695
0.167314
0.166934
0.166556
0.16618
0.165804
0.16543
0.165057
0.164686
0.164316
0.163947
0.163579
0.163213
0.162848
0.162484
0.162122
0.161761
0.161401
0.161042
0.160685
0.160328
0.159974
0.15962
0.159267
0.158916
0.158566
0.158217
0.157869
0.157523
0.157177
0.156833
0.15649
0.156148
0.155808
0.155468
0.15513
0.154792
0.154456
0.154121
0.153787
0.153455
0.153123
0.152793
0.152463
0.152135
0.151808
0.151481
0.151156
0.150832
0.150509
0.150188
0.149867
0.149547
0.149228
0.148911
0.148594
0.148279
0.147964
0.147651
0.147342
0.147045
0.146801
0.207161
0.207854
0.208705
0.209746
0.211023
0.212585
0.21447
0.216696
0.21927
0.222181
0.225407
0.228913
0.232657
0.236594
0.240676
0.244857
0.249093
0.253344
0.257574
0.261753
0.265855
0.269857
0.273743
0.277499
0.281115
0.284583
0.287899
0.291059
0.294063
0.296912
0.299606
0.302149
0.304543
0.306793
0.308903
0.310877
0.31272
0.314437
0.316033
0.317513
0.318882
0.320144
0.321304
0.322367
0.323338
0.32422
0.325017
0.325735
0.326376
0.326944
0.327443
0.327876
0.328246
0.328557
0.328811
0.329011
0.32916
0.32926
0.329314
0.329324
0.329292
0.32922
0.32911
0.328965
0.328785
0.328573
0.32833
0.328058
0.327757
0.327431
0.327079
0.326703
0.326305
0.325885
0.325445
0.324985
0.324506
0.32401
0.323498
0.322969
0.322426
0.321868
0.321297
0.320713
0.320117
0.319509
0.318891
0.318262
0.317623
0.316975
0.316318
0.315654
0.314981
0.314301
0.313614
0.31292
0.312221
0.311515
0.310804
0.310088
0.309368
0.308642
0.307913
0.307179
0.306442
0.305702
0.304959
0.304212
0.303463
0.302712
0.301958
0.301202
0.300444
0.299685
0.298924
0.298162
0.297399
0.296634
0.295869
0.295103
0.294337
0.293569
0.292802
0.292034
0.291267
0.290499
0.289731
0.288964
0.288197
0.28743
0.286664
0.285898
0.285133
0.284369
0.283606
0.282843
0.282082
0.281321
0.280561
0.279803
0.279046
0.27829
0.277535
0.276782
0.27603
0.27528
0.274531
0.273783
0.273037
0.272293
0.271551
0.27081
0.270071
0.269334
0.268598
0.267864
0.267133
0.266403
0.265675
0.264948
0.264224
0.263502
0.262782
0.262064
0.261348
0.260634
0.259922
0.259212
0.258504
0.257799
0.257095
0.256394
0.255695
0.254998
0.254303
0.25361
0.25292
0.252232
0.251546
0.250862
0.250181
0.249501
0.248824
0.24815
0.247477
0.246807
0.246139
0.245474
0.24481
0.244149
0.243491
0.242834
0.24218
0.241528
0.240878
0.240231
0.239586
0.238943
0.238303
0.237665
0.237029
0.236395
0.235764
0.235135
0.234508
0.233884
0.233261
0.232641
0.232024
0.231408
0.230795
0.230184
0.229575
0.228969
0.228365
0.227763
0.227163
0.226566
0.22597
0.225377
0.224786
0.224198
0.223611
0.223027
0.222445
0.221865
0.221287
0.220712
0.220138
0.219567
0.218998
0.218431
0.217866
0.217303
0.216743
0.216184
0.215628
0.215074
0.214522
0.213971
0.213423
0.212877
0.212334
0.211792
0.211252
0.210714
0.210178
0.209645
0.209113
0.208583
0.208056
0.20753
0.207006
0.206484
0.205965
0.205447
0.204931
0.204417
0.203905
0.203395
0.202887
0.202381
0.201876
0.201374
0.200873
0.200375
0.199878
0.199383
0.19889
0.198398
0.197909
0.197422
0.196936
0.196452
0.19597
0.195489
0.195011
0.194534
0.194059
0.193586
0.193115
0.192645
0.192177
0.191711
0.191246
0.190783
0.190322
0.189863
0.189405
0.188949
0.188495
0.188043
0.187592
0.187142
0.186695
0.186249
0.185804
0.185362
0.184921
0.184481
0.184043
0.183607
0.183172
0.182739
0.182308
0.181878
0.18145
0.181023
0.180597
0.180174
0.179751
0.179331
0.178912
0.178494
0.178078
0.177663
0.17725
0.176838
0.176428
0.17602
0.175612
0.175207
0.174802
0.174399
0.173998
0.173598
0.173199
0.172802
0.172406
0.172012
0.171619
0.171227
0.170837
0.170448
0.170061
0.169675
0.16929
0.168906
0.168524
0.168144
0.167764
0.167386
0.167009
0.166634
0.16626
0.165887
0.165515
0.165145
0.164776
0.164408
0.164042
0.163677
0.163313
0.16295
0.162589
0.162229
0.16187
0.161512
0.161156
0.1608
0.160446
0.160093
0.159742
0.159391
0.159042
0.158694
0.158347
0.158001
0.157656
0.157313
0.15697
0.156629
0.156289
0.15595
0.155613
0.155276
0.15494
0.154606
0.154273
0.153941
0.153609
0.153279
0.152951
0.152623
0.152296
0.15197
0.151646
0.151322
0.151
0.150678
0.150358
0.150038
0.14972
0.149403
0.149086
0.148771
0.148458
0.148148
0.14785
0.147605
0.206917
0.20727
0.207705
0.208235
0.208879
0.209666
0.210621
0.211767
0.213122
0.214699
0.2165
0.218526
0.220767
0.223209
0.225833
0.228617
0.231537
0.234566
0.237681
0.240856
0.244067
0.247292
0.250513
0.25371
0.256869
0.259976
0.263019
0.265989
0.268878
0.271678
0.274386
0.276998
0.279511
0.281922
0.284232
0.28644
0.288546
0.290552
0.292459
0.294267
0.29598
0.297599
0.299127
0.300566
0.301919
0.303188
0.304375
0.305485
0.306518
0.307478
0.308368
0.309189
0.309945
0.310638
0.311271
0.311845
0.312363
0.312827
0.313239
0.313602
0.313917
0.314187
0.314413
0.314596
0.314739
0.314844
0.314912
0.314944
0.314942
0.314907
0.314841
0.314746
0.314621
0.314469