/*--------------------------------*- C++ -*----------------------------------*\
| =========                 |                                                 |
| \\      /  F ield         | OpenFOAM: The Open Source CFD Toolbox           |
|  \\    /   O peration     | Version:  2506                                  |
|   \\  /    A nd           | Website:  www.openfoam.com                      |
|    \\/     M anipulation  |                                                 |
\*---------------------------------------------------------------------------*/
FoamFile
{
    version     2.0;
    format      ascii;
    arch        "LSB;label=32;scalar=64";
    class       volScalarField;
    location    "800";
    object      k;
}
// * * * * * * * * * * * * * * * * * * * * * * * * * * * * * * * * * * * * * //

dimensions      [0 2 -2 0 0 0 0];

internalField   nonuniform List<scalar> 
131949
(
0.559553
0.61061
0.612364
0.607642
0.603742
0.600655
0.598026
0.595766
0.593798
0.592038
0.590428
0.588932
0.587522
0.58618
0.584892
0.583647
0.582437
0.581256
0.580099
0.578964
0.577846
0.576744
0.575655
0.574578
0.573511
0.572454
0.571405
0.570365
0.569331
0.568304
0.567283
0.566267
0.565257
0.564253
0.563252
0.562257
0.561266
0.560279
0.559296
0.558317
0.557341
0.55637
0.555402
0.554437
0.553476
0.552518
0.551564
0.550613
0.549665
0.54872
0.547779
0.54684
0.545904
0.544972
0.544042
0.543116
0.542192
0.541272
0.540354
0.539439
0.538527
0.537618
0.536711
0.535808
0.534907
0.534009
0.533114
0.532221
0.531332
0.530445
0.52956
0.528679
0.5278
0.526924
0.52605
0.525179
0.524311
0.523445
0.522582
0.521722
0.520864
0.520009
0.519157
0.518307
0.51746
0.516615
0.515773
0.514933
0.514096
0.513261
0.512429
0.5116
0.510773
0.509949
0.509127
0.508307
0.50749
0.506676
0.505864
0.505054
0.504247
0.503442
0.50264
0.50184
0.501043
0.500248
0.499455
0.498665
0.497877
0.497092
0.496308
0.495528
0.494749
0.493973
0.4932
0.492428
0.491659
0.490893
0.490128
0.489366
0.488607
0.487849
0.487094
0.486341
0.48559
0.484842
0.484096
0.483352
0.48261
0.481871
0.481133
0.480398
0.479666
0.478935
0.478207
0.47748
0.476756
0.476034
0.475315
0.474597
0.473882
0.473168
0.472457
0.471748
0.471041
0.470337
0.469634
0.468933
0.468235
0.467538
0.466844
0.466152
0.465462
0.464774
0.464088
0.463403
0.462721
0.462042
0.461364
0.460688
0.460014
0.459342
0.458672
0.458004
0.457338
0.456674
0.456012
0.455352
0.454694
0.454038
0.453384
0.452732
0.452082
0.451433
0.450787
0.450142
0.4495
0.448859
0.44822
0.447584
0.446949
0.446315
0.445684
0.445055
0.444427
0.443802
0.443178
0.442556
0.441936
0.441317
0.440701
0.440086
0.439473
0.438862
0.438253
0.437645
0.43704
0.436436
0.435833
0.435233
0.434634
0.434038
0.433442
0.432849
0.432257
0.431667
0.431079
0.430493
0.429908
0.429325
0.428743
0.428164
0.427586
0.42701
0.426435
0.425862
0.425291
0.424721
0.424153
0.423587
0.423022
0.422459
0.421897
0.421337
0.420779
0.420222
0.419667
0.419114
0.418562
0.418012
0.417463
0.416916
0.41637
0.415826
0.415284
0.414743
0.414204
0.413666
0.41313
0.412595
0.412061
0.41153
0.410999
0.410471
0.409943
0.409418
0.408893
0.40837
0.407849
0.407329
0.406811
0.406294
0.405778
0.405264
0.404751
0.40424
0.40373
0.403222
0.402715
0.402209
0.401705
0.401202
0.4007
0.4002
0.399702
0.399204
0.398708
0.398214
0.39772
0.397229
0.396738
0.396249
0.395761
0.395274
0.394789
0.394305
0.393822
0.393341
0.392861
0.392382
0.391905
0.391429
0.390954
0.39048
0.390008
0.389536
0.389067
0.388598
0.388131
0.387664
0.3872
0.386736
0.386273
0.385812
0.385352
0.384893
0.384436
0.383979
0.383524
0.38307
0.382617
0.382165
0.381715
0.381266
0.380817
0.38037
0.379924
0.37948
0.379036
0.378594
0.378152
0.377712
0.377273
0.376835
0.376398
0.375963
0.375528
0.375094
0.374662
0.37423
0.3738
0.373371
0.372943
0.372516
0.37209
0.371665
0.371241
0.370818
0.370396
0.369975
0.369556
0.369137
0.368719
0.368303
0.367887
0.367472
0.367059
0.366646
0.366235
0.365824
0.365414
0.365006
0.364598
0.364191
0.363785
0.363381
0.362977
0.362574
0.362172
0.361771
0.361371
0.360972
0.360574
0.360176
0.35978
0.359385
0.35899
0.358596
0.358204
0.357812
0.357421
0.357031
0.356642
0.356254
0.355866
0.35548
0.355094
0.354709
0.354326
0.353942
0.35356
0.353179
0.352798
0.352419
0.35204
0.351662
0.351285
0.350908
0.350533
0.350158
0.349784
0.349411
0.349038
0.348667
0.348296
0.347926
0.347557
0.347189
0.346821
0.346454
0.346088
0.345723
0.345358
0.344994
0.344631
0.344269
0.343909
0.343555
0.34322
0.342957
0.437505
0.49331
0.531808
0.554333
0.5678
0.575801
0.5803
0.582718
0.583927
0.584399
0.584403
0.584105
0.583608
0.582974
0.582246
0.581451
0.580608
0.579729
0.578824
0.577899
0.57696
0.576011
0.575053
0.574089
0.573121
0.57215
0.571176
0.570202
0.569227
0.568252
0.567277
0.566303
0.565331
0.564359
0.563389
0.56242
0.561454
0.560489
0.559526
0.558565
0.557606
0.55665
0.555696
0.554744
0.553794
0.552847
0.551902
0.55096
0.55002
0.549083
0.548148
0.547216
0.546286
0.545359
0.544434
0.543512
0.542593
0.541676
0.540761
0.53985
0.53894
0.538034
0.53713
0.536228
0.535329
0.534433
0.53354
0.532648
0.53176
0.530874
0.529991
0.52911
0.528232
0.527356
0.526483
0.525613
0.524745
0.52388
0.523017
0.522157
0.521299
0.520444
0.519592
0.518742
0.517894
0.517049
0.516207
0.515367
0.514529
0.513694
0.512862
0.512032
0.511205
0.51038
0.509557
0.508737
0.507919
0.507104
0.506291
0.505481
0.504673
0.503868
0.503065
0.502264
0.501466
0.50067
0.499877
0.499086
0.498297
0.497511
0.496727
0.495945
0.495166
0.494389
0.493615
0.492842
0.492073
0.491305
0.49054
0.489777
0.489016
0.488258
0.487501
0.486748
0.485996
0.485247
0.484499
0.483755
0.483012
0.482272
0.481533
0.480797
0.480064
0.479332
0.478603
0.477875
0.47715
0.476427
0.475707
0.474988
0.474272
0.473558
0.472845
0.472135
0.471428
0.470722
0.470018
0.469317
0.468617
0.46792
0.467225
0.466531
0.46584
0.465151
0.464464
0.463779
0.463096
0.462415
0.461736
0.46106
0.460385
0.459712
0.459041
0.458372
0.457705
0.457041
0.456378
0.455717
0.455058
0.454401
0.453746
0.453093
0.452441
0.451792
0.451145
0.4505
0.449856
0.449215
0.448575
0.447937
0.447301
0.446667
0.446035
0.445405
0.444776
0.44415
0.443525
0.442902
0.442281
0.441662
0.441045
0.440429
0.439815
0.439204
0.438593
0.437985
0.437379
0.436774
0.436171
0.43557
0.43497
0.434373
0.433777
0.433182
0.43259
0.431999
0.43141
0.430823
0.430237
0.429654
0.429071
0.428491
0.427912
0.427335
0.42676
0.426186
0.425614
0.425044
0.424475
0.423908
0.423342
0.422778
0.422216
0.421656
0.421097
0.420539
0.419984
0.419429
0.418877
0.418326
0.417776
0.417229
0.416682
0.416138
0.415595
0.415053
0.414513
0.413974
0.413437
0.412902
0.412368
0.411835
0.411305
0.410775
0.410247
0.409721
0.409196
0.408672
0.40815
0.40763
0.407111
0.406593
0.406077
0.405562
0.405049
0.404537
0.404026
0.403517
0.403009
0.402503
0.401998
0.401495
0.400993
0.400492
0.399993
0.399495
0.398998
0.398503
0.398009
0.397517
0.397026
0.396536
0.396047
0.39556
0.395074
0.39459
0.394106
0.393624
0.393144
0.392665
0.392186
0.39171
0.391234
0.39076
0.390287
0.389815
0.389345
0.388876
0.388408
0.387941
0.387476
0.387011
0.386548
0.386087
0.385626
0.385167
0.384709
0.384252
0.383796
0.383341
0.382888
0.382436
0.381985
0.381535
0.381086
0.380638
0.380192
0.379747
0.379303
0.37886
0.378418
0.377977
0.377538
0.377099
0.376662
0.376226
0.37579
0.375356
0.374923
0.374492
0.374061
0.373631
0.373202
0.372775
0.372348
0.371923
0.371499
0.371075
0.370653
0.370232
0.369811
0.369392
0.368974
0.368557
0.368141
0.367726
0.367312
0.366899
0.366486
0.366075
0.365665
0.365256
0.364848
0.364441
0.364034
0.363629
0.363225
0.362822
0.362419
0.362018
0.361617
0.361218
0.360819
0.360421
0.360025
0.359629
0.359234
0.35884
0.358447
0.358054
0.357663
0.357272
0.356883
0.356494
0.356106
0.355719
0.355333
0.354948
0.354564
0.35418
0.353798
0.353416
0.353035
0.352655
0.352276
0.351897
0.35152
0.351143
0.350767
0.350392
0.350017
0.349644
0.349271
0.348899
0.348528
0.348157
0.347788
0.347419
0.347051
0.346684
0.346317
0.345951
0.345586
0.345222
0.344859
0.344496
0.344136
0.343782
0.343446
0.343182
0.398944
0.430837
0.461659
0.487593
0.508599
0.525145
0.537752
0.5472
0.554254
0.559503
0.563393
0.566258
0.568347
0.569842
0.570879
0.571558
0.571957
0.572131
0.572126
0.571975
0.571705
0.571337
0.570887
0.570371
0.569797
0.569176
0.568514
0.567818
0.567092
0.566341
0.565569
0.564778
0.563971
0.56315
0.562317
0.561474
0.560623
0.559763
0.558897
0.558026
0.557149
0.556269
0.555385
0.554498
0.553609
0.552718
0.551825
0.550932
0.550037
0.549142
0.548247
0.547351
0.546456
0.545561
0.544667
0.543773
0.54288
0.541988
0.541097
0.540207
0.539319
0.538432
0.537546
0.536662
0.53578
0.534899
0.53402
0.533143
0.532267
0.531394
0.530522
0.529652
0.528784
0.527919
0.527055
0.526193
0.525333
0.524476
0.523621
0.522767
0.521916
0.521067
0.520221
0.519376
0.518534
0.517694
0.516856
0.51602
0.515187
0.514356
0.513527
0.512701
0.511876
0.511055
0.510235
0.509417
0.508602
0.507789
0.506979
0.506171
0.505365
0.504561
0.50376
0.502961
0.502164
0.501369
0.500577
0.499787
0.498999
0.498214
0.497431
0.49665
0.495871
0.495095
0.494321
0.493549
0.492779
0.492012
0.491247
0.490484
0.489723
0.488965
0.488208
0.487454
0.486703
0.485953
0.485206
0.48446
0.483717
0.482977
0.482238
0.481501
0.480767
0.480035
0.479305
0.478577
0.477852
0.477128
0.476407
0.475687
0.47497
0.474255
0.473542
0.472831
0.472123
0.471416
0.470711
0.470009
0.469309
0.46861
0.467914
0.46722
0.466528
0.465838
0.46515
0.464464
0.46378
0.463098
0.462418
0.46174
0.461064
0.46039
0.459718
0.459048
0.45838
0.457714
0.45705
0.456388
0.455728
0.45507
0.454414
0.453759
0.453107
0.452457
0.451808
0.451161
0.450517
0.449874
0.449233
0.448594
0.447957
0.447322
0.446689
0.446057
0.445427
0.4448
0.444174
0.44355
0.442927
0.442307
0.441688
0.441072
0.440457
0.439844
0.439232
0.438623
0.438015
0.437409
0.436805
0.436202
0.435602
0.435003
0.434406
0.43381
0.433217
0.432625
0.432035
0.431446
0.430859
0.430274
0.429691
0.429109
0.428529
0.427951
0.427375
0.4268
0.426226
0.425655
0.425085
0.424517
0.42395
0.423385
0.422822
0.42226
0.4217
0.421141
0.420584
0.420029
0.419475
0.418923
0.418373
0.417824
0.417276
0.41673
0.416186
0.415643
0.415102
0.414563
0.414025
0.413488
0.412953
0.412419
0.411887
0.411357
0.410828
0.4103
0.409774
0.409249
0.408726
0.408205
0.407685
0.407166
0.406649
0.406133
0.405618
0.405105
0.404594
0.404084
0.403575
0.403068
0.402562
0.402057
0.401554
0.401052
0.400552
0.400053
0.399555
0.399059
0.398564
0.398071
0.397579
0.397088
0.396598
0.39611
0.395623
0.395138
0.394653
0.39417
0.393689
0.393208
0.392729
0.392252
0.391775
0.3913
0.390826
0.390353
0.389882
0.389412
0.388943
0.388475
0.388009
0.387544
0.38708
0.386617
0.386155
0.385695
0.385236
0.384778
0.384321
0.383866
0.383412
0.382958
0.382506
0.382056
0.381606
0.381157
0.38071
0.380264
0.379819
0.379375
0.378932
0.378491
0.37805
0.377611
0.377173
0.376735
0.376299
0.375864
0.375431
0.374998
0.374566
0.374135
0.373706
0.373278
0.37285
0.372424
0.371999
0.371574
0.371151
0.370729
0.370308
0.369888
0.369469
0.369051
0.368634
0.368218
0.367803
0.367389
0.366976
0.366564
0.366153
0.365743
0.365334
0.364926
0.364519
0.364113
0.363708
0.363304
0.362901
0.362498
0.362097
0.361697
0.361297
0.360899
0.360501
0.360104
0.359709
0.359314
0.35892
0.358527
0.358135
0.357743
0.357353
0.356963
0.356575
0.356187
0.3558
0.355414
0.355029
0.354645
0.354261
0.353879
0.353497
0.353116
0.352736
0.352357
0.351979
0.351601
0.351224
0.350848
0.350473
0.350099
0.349725
0.349353
0.348981
0.34861
0.348239
0.34787
0.347501
0.347133
0.346766
0.346399
0.346033
0.345668
0.345304
0.344941
0.34458
0.344225
0.343889
0.343624
0.384717
0.399671
0.417137
0.435562
0.453685
0.470605
0.485714
0.498801
0.509935
0.519299
0.527113
0.5336
0.538969
0.543401
0.547053
0.550052
0.552506
0.554504
0.556117
0.557406
0.55842
0.559199
0.559778
0.560185
0.560444
0.560574
0.560592
0.560513
0.56035
0.560111
0.559807
0.559445
0.559031
0.558572
0.558073
0.557537
0.55697
0.556373
0.555751
0.555107
0.554441
0.553757
0.553056
0.55234
0.551611
0.550869
0.550117
0.549355
0.548584
0.547805
0.547019
0.546226
0.545428
0.544624
0.543816
0.543004
0.542188
0.54137
0.540548
0.539724
0.538897
0.538069
0.53724
0.536409
0.535577
0.534744
0.533911
0.533077
0.532243
0.531409
0.530575
0.529741
0.528907
0.528074
0.527242
0.52641
0.525578
0.524748
0.523919
0.523091
0.522263
0.521437
0.520612
0.519789
0.518966
0.518145
0.517326
0.516508
0.515692
0.514877
0.514063
0.513252
0.512442
0.511633
0.510827
0.510022
0.509219
0.508418
0.507618
0.50682
0.506025
0.505231
0.504439
0.503649
0.502861
0.502074
0.50129
0.500508
0.499727
0.498949
0.498173
0.497398
0.496626
0.495855
0.495087
0.494321
0.493556
0.492794
0.492034
0.491275
0.490519
0.489765
0.489013
0.488262
0.487514
0.486768
0.486024
0.485282
0.484542
0.483804
0.483069
0.482335
0.481603
0.480873
0.480146
0.47942
0.478696
0.477975
0.477255
0.476538
0.475822
0.475109
0.474397
0.473688
0.47298
0.472275
0.471571
0.47087
0.470171
0.469473
0.468778
0.468084
0.467393
0.466703
0.466016
0.46533
0.464647
0.463965
0.463286
0.462608
0.461932
0.461258
0.460587
0.459917
0.459249
0.458583
0.457919
0.457257
0.456596
0.455938
0.455282
0.454627
0.453975
0.453324
0.452675
0.452028
0.451383
0.45074
0.450099
0.449459
0.448822
0.448186
0.447552
0.44692
0.44629
0.445661
0.445035
0.44441
0.443787
0.443166
0.442547
0.441929
0.441314
0.4407
0.440088
0.439477
0.438869
0.438262
0.437657
0.437054
0.436452
0.435852
0.435254
0.434658
0.434064
0.433471
0.43288
0.43229
0.431702
0.431116
0.430532
0.42995
0.429369
0.428789
0.428212
0.427636
0.427062
0.426489
0.425918
0.425349
0.424781
0.424215
0.423651
0.423088
0.422527
0.421967
0.421409
0.420853
0.420298
0.419745
0.419193
0.418643
0.418095
0.417548
0.417002
0.416458
0.415916
0.415375
0.414836
0.414298
0.413762
0.413228
0.412694
0.412163
0.411633
0.411104
0.410577
0.410051
0.409527
0.409004
0.408483
0.407963
0.407444
0.406927
0.406412
0.405898
0.405385
0.404874
0.404364
0.403856
0.403348
0.402843
0.402339
0.401836
0.401334
0.400834
0.400335
0.399838
0.399342
0.398847
0.398354
0.397862
0.397371
0.396882
0.396394
0.395907
0.395422
0.394938
0.394455
0.393974
0.393493
0.393014
0.392537
0.39206
0.391585
0.391112
0.390639
0.390168
0.389698
0.389229
0.388761
0.388295
0.38783
0.387366
0.386903
0.386442
0.385982
0.385523
0.385065
0.384608
0.384153
0.383699
0.383245
0.382794
0.382343
0.381893
0.381445
0.380997
0.380551
0.380106
0.379662
0.37922
0.378778
0.378338
0.377898
0.37746
0.377023
0.376587
0.376152
0.375718
0.375285
0.374854
0.374423
0.373993
0.373565
0.373137
0.372711
0.372286
0.371862
0.371438
0.371016
0.370595
0.370175
0.369756
0.369338
0.368921
0.368505
0.36809
0.367676
0.367263
0.366851
0.36644
0.36603
0.365621
0.365212
0.364805
0.364399
0.363994
0.36359
0.363186
0.362784
0.362383
0.361982
0.361583
0.361184
0.360786
0.360389
0.359993
0.359599
0.359204
0.358811
0.358419
0.358028
0.357637
0.357247
0.356859
0.356471
0.356084
0.355698
0.355312
0.354928
0.354544
0.354162
0.35378
0.353399
0.353019
0.352639
0.352261
0.351883
0.351506
0.35113
0.350755
0.35038
0.350006
0.349633
0.349261
0.34889
0.348519
0.34815
0.347781
0.347412
0.347045
0.346678
0.346312
0.345947
0.345583
0.345221
0.344865
0.344528
0.344263
0.379451
0.386516
0.395429
0.405971
0.417679
0.430003
0.442377
0.454341
0.465593
0.475964
0.485376
0.493821
0.501336
0.507983
0.513836
0.518974
0.523471
0.5274
0.530824
0.533802
0.536387
0.538623
0.540552
0.542208
0.543623
0.544823
0.545832
0.546671
0.547358
0.547909
0.548338
0.548658
0.548879
0.549011
0.549064
0.549043
0.548957
0.548811
0.548611
0.548362
0.548067
0.547732
0.547359
0.546952
0.546513
0.546046
0.545553
0.545035
0.544495
0.543935
0.543355
0.542759
0.542147
0.54152
0.540879
0.540226
0.539562
0.538887
0.538202
0.537509
0.536807
0.536098
0.535381
0.534659
0.53393
0.533196
0.532457
0.531713
0.530966
0.530214
0.52946
0.528702
0.527941
0.527177
0.526412
0.525644
0.524875
0.524104
0.523331
0.522558
0.521783
0.521007
0.520231
0.519454
0.518677
0.5179
0.517122
0.516344
0.515567
0.514789
0.514012
0.513235
0.512458
0.511682
0.510907
0.510132
0.509358
0.508585
0.507813
0.507041
0.506271
0.505501
0.504733
0.503966
0.5032
0.502435
0.501671
0.500909
0.500147
0.499388
0.498629
0.497872
0.497117
0.496363
0.49561
0.494859
0.494109
0.493361
0.492615
0.49187
0.491127
0.490385
0.489645
0.488907
0.48817
0.487435
0.486702
0.48597
0.48524
0.484512
0.483786
0.483061
0.482338
0.481617
0.480897
0.48018
0.479464
0.47875
0.478037
0.477327
0.476618
0.475911
0.475206
0.474503
0.473801
0.473102
0.472404
0.471708
0.471014
0.470321
0.469631
0.468942
0.468255
0.46757
0.466887
0.466206
0.465526
0.464848
0.464172
0.463498
0.462826
0.462156
0.461487
0.46082
0.460155
0.459492
0.458831
0.458172
0.457514
0.456858
0.456204
0.455552
0.454902
0.454253
0.453606
0.452961
0.452318
0.451677
0.451037
0.450399
0.449763
0.449129
0.448497
0.447866
0.447237
0.44661
0.445985
0.445361
0.444739
0.444119
0.443501
0.442885
0.44227
0.441657
0.441045
0.440436
0.439828
0.439222
0.438617
0.438014
0.437413
0.436814
0.436217
0.435621
0.435026
0.434434
0.433843
0.433254
0.432666
0.432081
0.431496
0.430914
0.430333
0.429754
0.429176
0.428601
0.428026
0.427454
0.426883
0.426313
0.425745
0.425179
0.424615
0.424052
0.42349
0.42293
0.422372
0.421815
0.42126
0.420707
0.420155
0.419604
0.419056
0.418508
0.417962
0.417418
0.416875
0.416334
0.415794
0.415256
0.41472
0.414184
0.413651
0.413118
0.412588
0.412058
0.411531
0.411004
0.410479
0.409956
0.409434
0.408914
0.408394
0.407877
0.407361
0.406846
0.406332
0.40582
0.40531
0.404801
0.404293
0.403786
0.403281
0.402778
0.402275
0.401774
0.401275
0.400777
0.40028
0.399784
0.39929
0.398797
0.398306
0.397816
0.397327
0.396839
0.396353
0.395868
0.395384
0.394902
0.394421
0.393941
0.393463
0.392985
0.392509
0.392035
0.391561
0.391089
0.390618
0.390148
0.38968
0.389212
0.388746
0.388282
0.387818
0.387355
0.386894
0.386434
0.385975
0.385518
0.385061
0.384606
0.384152
0.383699
0.383247
0.382797
0.382347
0.381899
0.381452
0.381006
0.380561
0.380117
0.379675
0.379233
0.378793
0.378353
0.377915
0.377478
0.377042
0.376607
0.376173
0.375741
0.375309
0.374879
0.374449
0.374021
0.373593
0.373167
0.372742
0.372317
0.371894
0.371472
0.371051
0.370631
0.370212
0.369793
0.369376
0.36896
0.368545
0.368131
0.367718
0.367306
0.366895
0.366485
0.366076
0.365667
0.36526
0.364854
0.364449
0.364044
0.363641
0.363238
0.362837
0.362436
0.362036
0.361638
0.36124
0.360843
0.360447
0.360052
0.359657
0.359264
0.358872
0.35848
0.358089
0.357699
0.357311
0.356923
0.356535
0.356149
0.355763
0.355379
0.354995
0.354612
0.35423
0.353849
0.353468
0.353089
0.35271
0.352332
0.351955
0.351578
0.351203
0.350828
0.350454
0.350081
0.349709
0.349337
0.348966
0.348596
0.348227
0.347858
0.347491
0.347124
0.346757
0.346392
0.34603
0.345672
0.345334
0.345068
0.377291
0.380856
0.385399
0.391002
0.397648
0.405209
0.41346
0.422132
0.430969
0.43975
0.448301
0.456491
0.464234
0.47148
0.478205
0.484406
0.490096
0.495295
0.50003
0.50433
0.508227
0.51175
0.51493
0.517795
0.520372
0.522684
0.524755
0.526605
0.528254
0.529718
0.531014
0.532155
0.533154
0.534024
0.534775
0.535417
0.535958
0.536407
0.536771
0.537057
0.53727
0.537417
0.537501
0.537529
0.537504
0.53743
0.53731
0.537148
0.536947
0.53671
0.536439
0.536136
0.535804
0.535445
0.53506
0.534652
0.534221
0.53377
0.533299
0.532811
0.532305
0.531784
0.531248
0.530698
0.530135
0.529561
0.528974
0.528378
0.527771
0.527156
0.526531
0.525899
0.525259
0.524612
0.523959
0.523299
0.522634
0.521963
0.521287
0.520607
0.519922
0.519234
0.518541
0.517845
0.517146
0.516444
0.51574
0.515033
0.514323
0.513612
0.512898
0.512183
0.511466
0.510748
0.510029
0.509309
0.508587
0.507865
0.507142
0.506418
0.505694
0.50497
0.504245
0.50352
0.502795
0.502069
0.501344
0.500619
0.499895
0.49917
0.498446
0.497722
0.496999
0.496276
0.495554
0.494833
0.494112
0.493392
0.492672
0.491954
0.491236
0.49052
0.489804
0.489089
0.488376
0.487663
0.486951
0.486241
0.485531
0.484823
0.484116
0.48341
0.482706
0.482003
0.481301
0.4806
0.479901
0.479203
0.478506
0.477811
0.477117
0.476424
0.475733
0.475044
0.474356
0.473669
0.472984
0.4723
0.471618
0.470937
0.470258
0.469581
0.468905
0.46823
0.467557
0.466886
0.466216
0.465548
0.464881
0.464216
0.463553
0.462891
0.462231
0.461572
0.460915
0.46026
0.459606
0.458954
0.458303
0.457654
0.457007
0.456362
0.455718
0.455075
0.454435
0.453796
0.453158
0.452523
0.451888
0.451256
0.450625
0.449996
0.449369
0.448743
0.448119
0.447496
0.446875
0.446256
0.445638
0.445022
0.444408
0.443795
0.443184
0.442575
0.441967
0.441361
0.440757
0.440154
0.439553
0.438953
0.438355
0.437759
0.437164
0.436571
0.435979
0.43539
0.434801
0.434215
0.43363
0.433046
0.432464
0.431884
0.431305
0.430728
0.430153
0.429579
0.429006
0.428435
0.427866
0.427299
0.426732
0.426168
0.425605
0.425043
0.424483
0.423925
0.423368
0.422813
0.422259
0.421707
0.421156
0.420607
0.420059
0.419513
0.418968
0.418425
0.417883
0.417342
0.416804
0.416266
0.41573
0.415196
0.414663
0.414131
0.413601
0.413073
0.412545
0.41202
0.411495
0.410972
0.410451
0.409931
0.409412
0.408895
0.408379
0.407864
0.407351
0.40684
0.406329
0.40582
0.405313
0.404807
0.404302
0.403798
0.403296
0.402795
0.402296
0.401798
0.401301
0.400805
0.400311
0.399818
0.399327
0.398836
0.398347
0.39786
0.397373
0.396888
0.396404
0.395922
0.395441
0.394961
0.394482
0.394004
0.393528
0.393053
0.392579
0.392107
0.391636
0.391165
0.390697
0.390229
0.389763
0.389297
0.388833
0.38837
0.387909
0.387448
0.386989
0.386531
0.386074
0.385618
0.385164
0.38471
0.384258
0.383807
0.383357
0.382908
0.382461
0.382014
0.381568
0.381124
0.380681
0.380239
0.379798
0.379358
0.378919
0.378481
0.378045
0.377609
0.377175
0.376741
0.376309
0.375878
0.375448
0.375019
0.37459
0.374163
0.373737
0.373312
0.372889
0.372466
0.372044
0.371623
0.371203
0.370784
0.370366
0.36995
0.369534
0.369119
0.368705
0.368292
0.36788
0.367469
0.367059
0.36665
0.366242
0.365835
0.365429
0.365024
0.36462
0.364216
0.363814
0.363412
0.363012
0.362612
0.362213
0.361816
0.361419
0.361023
0.360628
0.360233
0.35984
0.359448
0.359056
0.358665
0.358276
0.357887
0.357499
0.357111
0.356725
0.356339
0.355955
0.355571
0.355188
0.354806
0.354424
0.354044
0.353664
0.353285
0.352907
0.35253
0.352153
0.351778
0.351403
0.351029
0.350655
0.350283
0.349911
0.34954
0.34917
0.348801
0.348432
0.348064
0.347697
0.347331
0.346967
0.346609
0.34627
0.346003
0.37629
0.378226
0.380644
0.383627
0.387247
0.391536
0.396464
0.401953
0.407893
0.414161
0.420631
0.427184
0.433717
0.440142
0.446391
0.452412
0.458169
0.463638
0.468805
0.473665
0.47822
0.482474
0.486437
0.49012
0.493536
0.496697
0.499619
0.502314
0.504797
0.507079
0.509175
0.511096
0.512854
0.514458
0.51592
0.517249
0.518453
0.519541
0.52052
0.521398
0.522181
0.522875
0.523487
0.524021
0.524483
0.524876
0.525206
0.525476
0.52569
0.525852
0.525964
0.52603
0.526052
0.526034
0.525977
0.525884
0.525757
0.525598
0.525409
0.525191
0.524947
0.524677
0.524384
0.524067
0.52373
0.523373
0.522996
0.522602
0.522191
0.521764
0.521322
0.520866
0.520396
0.519913
0.519418
0.518912
0.518396
0.517869
0.517332
0.516786
0.516232
0.51567
0.5151
0.514522
0.513938
0.513347
0.512751
0.512148
0.51154
0.510927
0.510309
0.509686
0.50906
0.508429
0.507794
0.507156
0.506514
0.50587
0.505222
0.504572
0.503919
0.503264
0.502606
0.501947
0.501285
0.500622
0.499957
0.499291
0.498623
0.497954
0.497284
0.496613
0.495941
0.495268
0.494595
0.493921
0.493246
0.492571
0.491895
0.49122
0.490544
0.489867
0.489191
0.488515
0.487839
0.487163
0.486487
0.485811
0.485136
0.484461
0.483786
0.483112
0.482438
0.481765
0.481092
0.48042
0.479749
0.479078
0.478408
0.477739
0.477071
0.476403
0.475736
0.475071
0.474406
0.473741
0.473078
0.472416
0.471755
0.471095
0.470436
0.469778
0.469121
0.468466
0.467811
0.467158
0.466505
0.465854
0.465204
0.464556
0.463908
0.463262
0.462617
0.461974
0.461331
0.46069
0.460051
0.459412
0.458775
0.458139
0.457505
0.456872
0.45624
0.45561
0.454981
0.454354
0.453728
0.453103
0.45248
0.451858
0.451237
0.450618
0.450001
0.449385
0.44877
0.448157
0.447545
0.446934
0.446326
0.445718
0.445112
0.444508
0.443905
0.443303
0.442703
0.442104
0.441507
0.440912
0.440317
0.439725
0.439133
0.438544
0.437955
0.437369
0.436783
0.4362
0.435617
0.435036
0.434457
0.433879
0.433303
0.432728
0.432154
0.431582
0.431012
0.430443
0.429875
0.429309
0.428744
0.428181
0.42762
0.427059
0.4265
0.425943
0.425387
0.424833
0.42428
0.423728
0.423178
0.42263
0.422082
0.421536
0.420992
0.420449
0.419908
0.419368
0.418829
0.418292
0.417756
0.417221
0.416688
0.416157
0.415626
0.415097
0.41457
0.414044
0.413519
0.412996
0.412474
0.411953
0.411434
0.410916
0.4104
0.409884
0.409371
0.408858
0.408347
0.407837
0.407329
0.406822
0.406316
0.405811
0.405308
0.404806
0.404306
0.403806
0.403308
0.402812
0.402316
0.401822
0.401329
0.400838
0.400348
0.399859
0.399371
0.398884
0.398399
0.397915
0.397432
0.396951
0.396471
0.395992
0.395514
0.395037
0.394562
0.394088
0.393615
0.393143
0.392673
0.392203
0.391735
0.391268
0.390803
0.390338
0.389875
0.389412
0.388951
0.388491
0.388033
0.387575
0.387119
0.386663
0.386209
0.385756
0.385304
0.384854
0.384404
0.383955
0.383508
0.383062
0.382616
0.382172
0.381729
0.381288
0.380847
0.380407
0.379968
0.379531
0.379094
0.378659
0.378225
0.377791
0.377359
0.376928
0.376498
0.376068
0.37564
0.375213
0.374787
0.374362
0.373938
0.373515
0.373093
0.372672
0.372252
0.371833
0.371415
0.370998
0.370582
0.370167
0.369753
0.36934
0.368928
0.368517
0.368107
0.367697
0.367289
0.366882
0.366475
0.36607
0.365665
0.365262
0.364859
0.364457
0.364056
0.363656
0.363257
0.362859
0.362462
0.362065
0.36167
0.361275
0.360881
0.360488
0.360096
0.359705
0.359315
0.358926
0.358537
0.358149
0.357763
0.357377
0.356991
0.356607
0.356223
0.355841
0.355459
0.355078
0.354698
0.354318
0.353939
0.353562
0.353185
0.352808
0.352433
0.352058
0.351684
0.351311
0.350939
0.350567
0.350196
0.349826
0.349457
0.349089
0.348721
0.348354
0.34799
0.347631
0.347292
0.347024
0.375763
0.376876
0.378229
0.37987
0.381853
0.384231
0.387033
0.390263
0.393904
0.397918
0.402253
0.40685
0.411641
0.416563
0.421554
0.426557
0.431525
0.436416
0.441197
0.44584
0.450326
0.454639
0.45877
0.462713
0.466464
0.470025
0.473395
0.476579
0.479582
0.482408
0.485064
0.487556
0.489892
0.492078
0.49412
0.496025
0.497801
0.499453
0.500988
0.502412
0.50373
0.504948
0.506071
0.507105
0.508053
0.50892
0.509712
0.51043
0.511081
0.511666
0.51219
0.512656
0.513066
0.513424
0.513732
0.513993
0.514209
0.514383
0.514517
0.514612
0.514671
0.514696
0.514688
0.514648
0.51458
0.514483
0.514359
0.51421
0.514036
0.51384
0.513622
0.513382
0.513123
0.512845
0.512549
0.512236
0.511907
0.511562
0.511202
0.510828
0.510441
0.510041
0.509628
0.509204
0.508769
0.508323
0.507867
0.507401
0.506927
0.506443
0.505952
0.505452
0.504945
0.50443
0.503909
0.503381
0.502847
0.502307
0.501762
0.501211
0.500655
0.500094
0.499528
0.498958
0.498384
0.497806
0.497225
0.496639
0.496051
0.495459
0.494864
0.494266
0.493666
0.493063
0.492458
0.491851
0.491241
0.490629
0.490016
0.489401
0.488784
0.488166
0.487546
0.486925
0.486303
0.485679
0.485055
0.48443
0.483803
0.483177
0.482549
0.481921
0.481292
0.480663
0.480033
0.479403
0.478773
0.478143
0.477512
0.476881
0.476251
0.47562
0.474989
0.474359
0.473728
0.473098
0.472468
0.471838
0.471209
0.47058
0.469952
0.469324
0.468696
0.468069
0.467442
0.466816
0.466191
0.465566
0.464942
0.464319
0.463696
0.463074
0.462453
0.461833
0.461214
0.460595
0.459977
0.45936
0.458744
0.458129
0.457515
0.456902
0.45629
0.455679
0.455069
0.45446
0.453852
0.453245
0.452639
0.452034
0.45143
0.450828
0.450226
0.449626
0.449027
0.448428
0.447832
0.447236
0.446641
0.446048
0.445456
0.444865
0.444275
0.443687
0.4431
0.442514
0.441929
0.441345
0.440763
0.440182
0.439602
0.439024
0.438447
0.437871
0.437296
0.436723
0.436151
0.43558
0.435011
0.434443
0.433876
0.43331
0.432746
0.432183
0.431621
0.431061
0.430502
0.429944
0.429388
0.428833
0.428279
0.427727
0.427176
0.426626
0.426078
0.425531
0.424985
0.42444
0.423897
0.423355
0.422815
0.422276
0.421738
0.421201
0.420666
0.420132
0.419599
0.419068
0.418538
0.418009
0.417482
0.416956
0.416431
0.415907
0.415385
0.414864
0.414344
0.413826
0.413309
0.412793
0.412279
0.411765
0.411253
0.410743
0.410233
0.409725
0.409218
0.408712
0.408208
0.407705
0.407203
0.406702
0.406203
0.405705
0.405208
0.404712
0.404218
0.403725
0.403233
0.402742
0.402252
0.401764
0.401277
0.400791
0.400306
0.399823
0.399341
0.39886
0.39838
0.397901
0.397423
0.396947
0.396472
0.395998
0.395525
0.395053
0.394583
0.394114
0.393645
0.393178
0.392712
0.392248
0.391784
0.391322
0.39086
0.3904
0.389941
0.389483
0.389026
0.388571
0.388116
0.387663
0.38721
0.386759
0.386309
0.38586
0.385412
0.384965
0.384519
0.384074
0.38363
0.383188
0.382746
0.382306
0.381866
0.381428
0.380991
0.380554
0.380119
0.379685
0.379252
0.37882
0.378388
0.377958
0.377529
0.377101
0.376674
0.376248
0.375823
0.375399
0.374976
0.374554
0.374133
0.373713
0.373293
0.372875
0.372458
0.372042
0.371627
0.371212
0.370799
0.370386
0.369975
0.369564
0.369155
0.368746
0.368338
0.367932
0.367526
0.367121
0.366717
0.366314
0.365911
0.36551
0.36511
0.36471
0.364311
0.363913
0.363517
0.363121
0.362725
0.362331
0.361938
0.361545
0.361153
0.360762
0.360372
0.359983
0.359595
0.359207
0.358821
0.358435
0.35805
0.357666
0.357282
0.3569
0.356518
0.356137
0.355757
0.355377
0.354999
0.354621
0.354244
0.353868
0.353492
0.353118
0.352744
0.352371
0.351998
0.351627
0.351256
0.350886
0.350516
0.350148
0.34978
0.349413
0.349049
0.34869
0.34835
0.348082
0.375453
0.376105
0.376886
0.377816
0.378925
0.38025
0.381821
0.383662
0.385785
0.388194
0.390881
0.39383
0.397016
0.400408
0.403972
0.407673
0.411473
0.415339
0.419238
0.423141
0.42702
0.430854
0.434623
0.438311
0.441905
0.445395
0.448772
0.452031
0.455167
0.45818
0.461066
0.463827
0.466463
0.468976
0.471368
0.473642
0.4758
0.477846
0.479783
0.481616
0.483346
0.484979
0.486517
0.487965
0.489326
0.490603
0.4918
0.49292
0.493966
0.494941
0.495849
0.496692
0.497474
0.498196
0.498861
0.499472
0.500031
0.50054
0.501002
0.501419
0.501792
0.502123
0.502414
0.502668
0.502885
0.503067
0.503216
0.503332
0.503419
0.503476
0.503504
0.503506