/*--------------------------------*- C++ -*----------------------------------*\
| =========                 |                                                 |
| \\      /  F ield         | OpenFOAM: The Open Source CFD Toolbox           |
|  \\    /   O peration     | Version:  2506                                  |
|   \\  /    A nd           | Website:  www.openfoam.com                      |
|    \\/     M anipulation  |                                                 |
\*---------------------------------------------------------------------------*/
FoamFile
{
    version     2.0;
    format      ascii;
    arch        "LSB;label=32;scalar=64";
    class       volScalarField;
    location    "800";
    object      nut;
}
// * * * * * * * * * * * * * * * * * * * * * * * * * * * * * * * * * * * * * //

dimensions      [0 2 -1 0 0 0 0];

internalField   nonuniform List<scalar> 
131949
(
0.0659348
0.068194
0.068284
0.0682257
0.0682935
0.0684261
0.0685771
0.0687316
0.0688829
0.0690269
0.0691625
0.0692894
0.0694082
0.0695196
0.069624
0.0697222
0.0698147
0.0699021
0.0699848
0.0700631
0.0701375
0.0702083
0.0702758
0.0703403
0.0704019
0.0704608
0.0705174
0.0705716
0.0706238
0.070674
0.0707223
0.0707689
0.0708138
0.0708572
0.0708992
0.0709398
0.0709791
0.0710172
0.0710542
0.07109
0.0711249
0.0711587
0.0711916
0.0712236
0.0712547
0.071285
0.0713145
0.0713433
0.0713714
0.0713988
0.0714256
0.0714517
0.0714772
0.0715021
0.0715265
0.0715503
0.0715737
0.0715965
0.0716188
0.0716407
0.0716622
0.0716832
0.0717038
0.071724
0.0717438
0.0717633
0.0717824
0.0718011
0.0718195
0.0718376
0.0718553
0.0718727
0.0718899
0.0719067
0.0719233
0.0719396
0.0719556
0.0719714
0.0719869
0.0720022
0.0720172
0.072032
0.0720466
0.0720609
0.0720751
0.072089
0.0721027
0.0721162
0.0721296
0.0721427
0.0721557
0.0721685
0.0721811
0.0721935
0.0722058
0.0722179
0.0722299
0.0722417
0.0722533
0.0722648
0.0722762
0.0722874
0.0722984
0.0723094
0.0723202
0.0723309
0.0723414
0.0723518
0.0723621
0.0723723
0.0723824
0.0723923
0.0724021
0.0724119
0.0724215
0.072431
0.0724404
0.0724497
0.0724589
0.072468
0.072477
0.0724859
0.0724948
0.0725035
0.0725121
0.0725207
0.0725292
0.0725375
0.0725458
0.0725541
0.0725622
0.0725703
0.0725782
0.0725861
0.072594
0.0726017
0.0726094
0.072617
0.0726246
0.0726321
0.0726395
0.0726468
0.0726541
0.0726613
0.0726685
0.0726756
0.0726826
0.0726896
0.0726965
0.0727033
0.0727101
0.0727169
0.0727236
0.0727302
0.0727368
0.0727433
0.0727498
0.0727562
0.0727626
0.0727689
0.0727752
0.0727814
0.0727876
0.0727938
0.0727999
0.0728059
0.0728119
0.0728179
0.0728238
0.0728297
0.0728355
0.0728414
0.0728471
0.0728528
0.0728585
0.0728642
0.0728698
0.0728753
0.0728809
0.0728864
0.0728918
0.0728973
0.0729027
0.072908
0.0729134
0.0729187
0.0729239
0.0729292
0.0729344
0.0729395
0.0729447
0.0729498
0.0729549
0.0729599
0.072965
0.07297
0.0729749
0.0729799
0.0729848
0.0729897
0.0729946
0.0729994
0.0730042
0.073009
0.0730138
0.0730186
0.0730233
0.073028
0.0730327
0.0730373
0.0730419
0.0730466
0.0730512
0.0730557
0.0730603
0.0730648
0.0730693
0.0730738
0.0730783
0.0730827
0.0730871
0.0730916
0.0730959
0.0731003
0.0731047
0.073109
0.0731133
0.0731176
0.0731219
0.0731262
0.0731304
0.0731347
0.0731389
0.0731431
0.0731473
0.0731514
0.0731556
0.0731597
0.0731639
0.073168
0.0731721
0.0731761
0.0731802
0.0731843
0.0731883
0.0731923
0.0731963
0.0732003
0.0732043
0.0732082
0.0732122
0.0732161
0.07322
0.0732239
0.0732278
0.0732317
0.0732356
0.0732394
0.0732433
0.0732471
0.0732509
0.0732547
0.0732585
0.0732623
0.0732661
0.0732698
0.0732736
0.0732773
0.073281
0.0732847
0.0732884
0.0732921
0.0732958
0.0732994
0.0733031
0.0733067
0.0733104
0.073314
0.0733176
0.0733212
0.0733248
0.0733283
0.0733319
0.0733354
0.073339
0.0733425
0.073346
0.0733495
0.073353
0.0733565
0.07336
0.0733634
0.0733669
0.0733703
0.0733737
0.0733771
0.0733805
0.0733839
0.0733873
0.0733907
0.073394
0.0733974
0.0734007
0.0734041
0.0734074
0.0734107
0.073414
0.0734173
0.0734205
0.0734238
0.073427
0.0734303
0.0734335
0.0734367
0.0734399
0.0734431
0.0734463
0.0734494
0.0734526
0.0734557
0.0734589
0.073462
0.0734651
0.0734682
0.0734713
0.0734743
0.0734774
0.0734804
0.0734834
0.0734864
0.0734894
0.0734924
0.0734954
0.0734984
0.0735013
0.0735042
0.0735071
0.07351
0.0735129
0.0735158
0.0735186
0.0735215
0.0735243
0.0735271
0.0735299
0.0735327
0.0735354
0.0735382
0.0735409
0.0735436
0.0735463
0.073549
0.0735516
0.0735543
0.0735569
0.0735595
0.073562
0.0735646
0.0735671
0.0735697
0.0735722
0.0735747
0.0735771
0.0735796
0.073582
0.0735844
0.0735868
0.0735891
0.0735914
0.0735938
0.073596
0.0735983
0.0736006
0.0736028
0.073605
0.0736072
0.0736093
0.0736114
0.0736135
0.0736156
0.0736177
0.0736197
0.0736217
0.0736237
0.0736256
0.0736275
0.0736294
0.0736313
0.0736331
0.073635
0.0736367
0.0736385
0.0736402
0.073642
0.0736437
0.0736454
0.0736475
0.0736503
0.0736555
0.0736644
0.0637129
0.066255
0.0678732
0.0686936
0.0691245
0.0693616
0.0694973
0.0695891
0.0696653
0.0697365
0.069806
0.069875
0.0699434
0.070011
0.0700774
0.0701424
0.0702056
0.0702671
0.0703267
0.0703844
0.0704403
0.0704944
0.0705467
0.0705973
0.0706463
0.0706937
0.0707396
0.0707841
0.0708272
0.070869
0.0709095
0.0709488
0.070987
0.0710241
0.0710601
0.0710951
0.0711292
0.0711624
0.0711947
0.0712262
0.0712568
0.0712867
0.0713159
0.0713444
0.0713721
0.0713992
0.0714257
0.0714516
0.071477
0.0715017
0.0715259
0.0715496
0.0715728
0.0715956
0.0716178
0.0716396
0.071661
0.0716819
0.0717025
0.0717226
0.0717424
0.0717618
0.0717809
0.0717996
0.0718179
0.071836
0.0718537
0.0718711
0.0718883
0.0719051
0.0719217
0.071938
0.071954
0.0719698
0.0719853
0.0720006
0.0720156
0.0720304
0.072045
0.0720594
0.0720735
0.0720875
0.0721012
0.0721148
0.0721281
0.0721413
0.0721543
0.0721671
0.0721797
0.0721922
0.0722045
0.0722166
0.0722286
0.0722404
0.0722521
0.0722636
0.0722749
0.0722862
0.0722973
0.0723082
0.0723191
0.0723297
0.0723403
0.0723508
0.0723611
0.0723713
0.0723814
0.0723913
0.0724012
0.0724109
0.0724206
0.0724301
0.0724395
0.0724488
0.0724581
0.0724672
0.0724762
0.0724851
0.072494
0.0725027
0.0725114
0.07252
0.0725284
0.0725368
0.0725452
0.0725534
0.0725615
0.0725696
0.0725776
0.0725855
0.0725934
0.0726012
0.0726089
0.0726165
0.072624
0.0726315
0.072639
0.0726463
0.0726536
0.0726608
0.072668
0.0726751
0.0726821
0.0726891
0.072696
0.0727029
0.0727097
0.0727164
0.0727231
0.0727298
0.0727364
0.0727429
0.0727494
0.0727558
0.0727622
0.0727685
0.0727748
0.0727811
0.0727872
0.0727934
0.0727995
0.0728055
0.0728115
0.0728175
0.0728234
0.0728293
0.0728352
0.072841
0.0728467
0.0728524
0.0728581
0.0728638
0.0728694
0.0728749
0.0728805
0.072886
0.0728914
0.0728969
0.0729022
0.0729076
0.0729129
0.0729182
0.0729235
0.0729287
0.0729339
0.0729391
0.0729442
0.0729493
0.0729544
0.0729594
0.0729645
0.0729694
0.0729744
0.0729793
0.0729843
0.0729891
0.072994
0.0729988
0.0730036
0.0730084
0.0730132
0.0730179
0.0730226
0.0730273
0.073032
0.0730366
0.0730412
0.0730458
0.0730504
0.073055
0.0730595
0.073064
0.0730685
0.073073
0.0730774
0.0730819
0.0730863
0.0730907
0.0730951
0.0730994
0.0731038
0.0731081
0.0731124
0.0731167
0.073121
0.0731252
0.0731295
0.0731337
0.0731379
0.0731421
0.0731462
0.0731504
0.0731545
0.0731587
0.0731628
0.0731669
0.0731709
0.073175
0.0731791
0.0731831
0.0731871
0.0731911
0.0731951
0.0731991
0.0732031
0.073207
0.0732109
0.0732149
0.0732188
0.0732227
0.0732266
0.0732304
0.0732343
0.0732381
0.073242
0.0732458
0.0732496
0.0732534
0.0732572
0.0732609
0.0732647
0.0732684
0.0732722
0.0732759
0.0732796
0.0732833
0.073287
0.0732907
0.0732943
0.073298
0.0733016
0.0733052
0.0733089
0.0733125
0.0733161
0.0733197
0.0733232
0.0733268
0.0733303
0.0733339
0.0733374
0.0733409
0.0733444
0.0733479
0.0733514
0.0733549
0.0733584
0.0733618
0.0733653
0.0733687
0.0733721
0.0733755
0.0733789
0.0733823
0.0733857
0.0733891
0.0733924
0.0733958
0.0733991
0.0734025
0.0734058
0.0734091
0.0734124
0.0734157
0.0734189
0.0734222
0.0734255
0.0734287
0.0734319
0.0734351
0.0734384
0.0734415
0.0734447
0.0734479
0.0734511
0.0734542
0.0734574
0.0734605
0.0734636
0.0734667
0.0734698
0.0734729
0.0734759
0.073479
0.073482
0.0734851
0.0734881
0.0734911
0.0734941
0.0734971
0.0735
0.073503
0.0735059
0.0735088
0.0735117
0.0735146
0.0735175
0.0735204
0.0735232
0.0735261
0.0735289
0.0735317
0.0735345
0.0735372
0.07354
0.0735427
0.0735455
0.0735482
0.0735509
0.0735535
0.0735562
0.0735588
0.0735615
0.0735641
0.0735666
0.0735692
0.0735718
0.0735743
0.0735768
0.0735793
0.0735818
0.0735842
0.0735867
0.0735891
0.0735915
0.0735938
0.0735962
0.0735985
0.0736008
0.0736031
0.0736054
0.0736076
0.0736098
0.073612
0.0736142
0.0736163
0.0736184
0.0736205
0.0736226
0.0736247
0.0736267
0.0736287
0.0736307
0.0736326
0.0736345
0.0736364
0.0736383
0.0736401
0.073642
0.0736437
0.0736455
0.0736472
0.0736489
0.0736506
0.0736523
0.0736541
0.0736561
0.0736589
0.073664
0.0736729
0.0627756
0.0647438
0.0664136
0.0676594
0.0685604
0.0691961
0.0696295
0.0699228
0.0701254
0.0702697
0.0703766
0.0704596
0.0705275
0.0705856
0.0706372
0.0706844
0.0707286
0.0707706
0.0708108
0.0708497
0.0708874
0.0709241
0.0709599
0.0709948
0.0710289
0.0710623
0.071095
0.0711269
0.0711582
0.0711888
0.0712187
0.071248
0.0712767
0.0713048
0.0713323
0.0713593
0.0713857
0.0714115
0.0714369
0.0714617
0.0714861
0.0715099
0.0715333
0.0715563
0.0715788
0.0716009
0.0716226
0.0716439
0.0716647
0.0716852
0.0717054
0.0717251
0.0717446
0.0717637
0.0717824
0.0718009
0.071819
0.0718368
0.0718543
0.0718716
0.0718885
0.0719052
0.0719216
0.0719378
0.0719537
0.0719693
0.0719848
0.072
0.0720149
0.0720297
0.0720442
0.0720585
0.0720726
0.0720865
0.0721002
0.0721137
0.072127
0.0721402
0.0721531
0.0721659
0.0721785
0.072191
0.0722033
0.0722154
0.0722274
0.0722392
0.0722509
0.0722624
0.0722737
0.072285
0.0722961
0.072307
0.0723179
0.0723286
0.0723392
0.0723496
0.0723599
0.0723702
0.0723803
0.0723902
0.0724001
0.0724099
0.0724195
0.0724291
0.0724385
0.0724479
0.0724571
0.0724662
0.0724753
0.0724842
0.0724931
0.0725019
0.0725105
0.0725191
0.0725276
0.0725361
0.0725444
0.0725527
0.0725608
0.0725689
0.0725769
0.0725849
0.0725927
0.0726005
0.0726082
0.0726159
0.0726235
0.072631
0.0726384
0.0726458
0.0726531
0.0726603
0.0726675
0.0726746
0.0726817
0.0726887
0.0726956
0.0727025
0.0727093
0.072716
0.0727227
0.0727294
0.072736
0.0727425
0.072749
0.0727554
0.0727618
0.0727682
0.0727744
0.0727807
0.0727869
0.072793
0.0727991
0.0728052
0.0728112
0.0728171
0.0728231
0.0728289
0.0728348
0.0728406
0.0728463
0.072852
0.0728577
0.0728633
0.0728689
0.0728745
0.07288
0.0728855
0.072891
0.0728964
0.0729017
0.0729071
0.0729124
0.0729177
0.0729229
0.0729281
0.0729333
0.0729385
0.0729436
0.0729487
0.0729537
0.0729588
0.0729638
0.0729687
0.0729737
0.0729786
0.0729835
0.0729884
0.0729932
0.072998
0.0730028
0.0730075
0.0730123
0.073017
0.0730217
0.0730263
0.073031
0.0730356
0.0730402
0.0730448
0.0730493
0.0730538
0.0730583
0.0730628
0.0730673
0.0730717
0.0730762
0.0730806
0.073085
0.0730893
0.0730937
0.073098
0.0731023
0.0731066
0.0731109
0.0731151
0.0731194
0.0731236
0.0731278
0.073132
0.0731362
0.0731403
0.0731445
0.0731486
0.0731527
0.0731568
0.0731609
0.073165
0.073169
0.073173
0.0731771
0.0731811
0.0731851
0.073189
0.073193
0.073197
0.0732009
0.0732048
0.0732087
0.0732126
0.0732165
0.0732204
0.0732242
0.0732281
0.0732319
0.0732357
0.0732395
0.0732433
0.0732471
0.0732509
0.0732546
0.0732584
0.0732621
0.0732658
0.0732696
0.0732733
0.0732769
0.0732806
0.0732843
0.0732879
0.0732916
0.0732952
0.0732988
0.0733024
0.073306
0.0733096
0.0733132
0.0733168
0.0733203
0.0733239
0.0733274
0.073331
0.0733345
0.073338
0.0733415
0.073345
0.0733484
0.0733519
0.0733553
0.0733588
0.0733622
0.0733657
0.0733691
0.0733725
0.0733759
0.0733793
0.0733826
0.073386
0.0733893
0.0733927
0.073396
0.0733994
0.0734027
0.073406
0.0734093
0.0734126
0.0734158
0.0734191
0.0734223
0.0734256
0.0734288
0.0734321
0.0734353
0.0734385
0.0734417
0.0734448
0.073448
0.0734512
0.0734543
0.0734575
0.0734606
0.0734637
0.0734668
0.0734699
0.073473
0.0734761
0.0734792
0.0734822
0.0734853
0.0734883
0.0734913
0.0734943
0.0734973
0.0735003
0.0735033
0.0735062
0.0735092
0.0735121
0.0735151
0.073518
0.0735209
0.0735237
0.0735266
0.0735295
0.0735323
0.0735351
0.073538
0.0735408
0.0735435
0.0735463
0.0735491
0.0735518
0.0735546
0.0735573
0.07356
0.0735626
0.0735653
0.073568
0.0735706
0.0735732
0.0735758
0.0735784
0.0735809
0.0735835
0.073586
0.0735885
0.073591
0.0735935
0.073596
0.0735984
0.0736008
0.0736032
0.0736056
0.0736079
0.0736103
0.0736126
0.0736149
0.0736172
0.0736194
0.0736216
0.0736239
0.073626
0.0736282
0.0736304
0.0736325
0.0736346
0.0736366
0.0736387
0.0736407
0.0736427
0.0736447
0.0736466
0.0736486
0.0736505
0.0736523
0.0736542
0.073656
0.0736578
0.0736596
0.0736613
0.073663
0.0736647
0.0736664
0.073668
0.0736697
0.0736714
0.0736733
0.0736761
0.0736812
0.0736901
0.0620602
0.063308
0.0646078
0.0658342
0.0669193
0.0678343
0.0685744
0.0691571
0.0696103
0.0699611
0.0702329
0.0704448
0.0706118
0.0707451
0.0708532
0.0709423
0.0710172
0.0710812
0.0711368
0.0711859
0.0712299
0.07127
0.0713067
0.0713409
0.0713729
0.0714032
0.0714319
0.0714594
0.0714857
0.0715111
0.0715356
0.0715594
0.0715825
0.071605
0.0716269
0.0716483
0.0716693
0.0716897
0.0717098
0.0717294
0.0717487
0.0717676
0.0717861
0.0718043
0.0718222
0.0718398
0.0718571
0.0718742
0.0718909
0.0719074
0.0719236
0.0719396
0.0719553
0.0719708
0.071986
0.072001
0.0720159
0.0720304
0.0720448
0.072059
0.072073
0.0720868
0.0721004
0.0721138
0.0721271
0.0721401
0.072153
0.0721657
0.0721783
0.0721907
0.0722029
0.072215
0.0722269
0.0722387
0.0722503
0.0722618
0.0722732
0.0722844
0.0722954
0.0723064
0.0723172
0.0723279
0.0723385
0.0723489
0.0723593
0.0723695
0.0723796
0.0723895
0.0723994
0.0724092
0.0724188
0.0724284
0.0724378
0.0724472
0.0724564
0.0724656
0.0724747
0.0724836
0.0724925
0.0725013
0.07251
0.0725186
0.0725271
0.0725355
0.0725439
0.0725522
0.0725603
0.0725685
0.0725765
0.0725845
0.0725923
0.0726001
0.0726079
0.0726155
0.0726231
0.0726307
0.0726381
0.0726455
0.0726528
0.0726601
0.0726673
0.0726744
0.0726815
0.0726885
0.0726954
0.0727023
0.0727092
0.0727159
0.0727226
0.0727293
0.0727359
0.0727425
0.072749
0.0727554
0.0727618
0.0727681
0.0727744
0.0727807
0.0727869
0.072793
0.0727991
0.0728052
0.0728112
0.0728171
0.072823
0.0728289
0.0728347
0.0728405
0.0728463
0.072852
0.0728577
0.0728633
0.0728689
0.0728744
0.0728799
0.0728854
0.0728908
0.0728962
0.0729016
0.0729069
0.0729122
0.0729175
0.0729227
0.0729279
0.0729331
0.0729382
0.0729433
0.0729484
0.0729534
0.0729584
0.0729634
0.0729683
0.0729732
0.0729781
0.072983
0.0729878
0.0729926
0.0729974
0.0730022
0.0730069
0.0730116
0.0730163
0.0730209
0.0730255
0.0730301
0.0730347
0.0730393
0.0730438
0.0730483
0.0730528
0.0730573
0.0730617
0.0730661
0.0730705
0.0730749
0.0730793
0.0730836
0.0730879
0.0730922
0.0730965
0.0731008
0.073105
0.0731093
0.0731135
0.0731177
0.0731218
0.073126
0.0731301
0.0731343
0.0731384
0.0731425
0.0731465
0.0731506
0.0731546
0.0731587
0.0731627
0.0731667
0.0731707
0.0731747
0.0731786
0.0731826
0.0731865
0.0731904
0.0731943
0.0731982
0.0732021
0.0732059
0.0732098
0.0732136
0.0732174
0.0732213
0.0732251
0.0732288
0.0732326
0.0732364
0.0732401
0.0732439
0.0732476
0.0732513
0.073255
0.0732587
0.0732624
0.0732661
0.0732697
0.0732734
0.073277
0.0732807
0.0732843
0.0732879
0.0732915
0.0732951
0.0732986
0.0733022
0.0733058
0.0733093
0.0733128
0.0733164
0.0733199
0.0733234
0.0733269
0.0733304
0.0733338
0.0733373
0.0733408
0.0733442
0.0733477
0.0733511
0.0733545
0.0733579
0.0733613
0.0733647
0.0733681
0.0733715
0.0733748
0.0733782
0.0733815
0.0733849
0.0733882
0.0733915
0.0733948
0.0733981
0.0734014
0.0734047
0.073408
0.0734112
0.0734145
0.0734177
0.073421
0.0734242
0.0734274
0.0734306
0.0734338
0.073437
0.0734402
0.0734434
0.0734466
0.0734497
0.0734529
0.073456
0.0734591
0.0734623
0.0734654
0.0734685
0.0734716
0.0734746
0.0734777
0.0734808
0.0734838
0.0734869
0.0734899
0.0734929
0.073496
0.073499
0.073502
0.0735049
0.0735079
0.0735109
0.0735138
0.0735168
0.0735197
0.0735226
0.0735255
0.0735284
0.0735313
0.0735342
0.0735371
0.0735399
0.0735428
0.0735456
0.0735484
0.0735512
0.073554
0.0735568
0.0735595
0.0735623
0.073565
0.0735678
0.0735705
0.0735732
0.0735759
0.0735785
0.0735812
0.0735838
0.0735865
0.0735891
0.0735917
0.0735943
0.0735968
0.0735994
0.0736019
0.0736044
0.0736069
0.0736094
0.0736119
0.0736143
0.0736168
0.0736192
0.0736216
0.073624
0.0736263
0.0736287
0.073631
0.0736333
0.0736356
0.0736378
0.0736401
0.0736423
0.0736445
0.0736467
0.0736488
0.073651
0.0736531
0.0736552
0.0736573
0.0736593
0.0736613
0.0736633
0.0736653
0.0736673
0.0736692
0.0736711
0.073673
0.0736748
0.0736767
0.0736785
0.0736803
0.073682
0.0736838
0.0736855
0.0736871
0.0736888
0.0736904
0.073692
0.0736936
0.0736952
0.0736968
0.0736987
0.0737015
0.0737065
0.0737153
0.0616763
0.0623976
0.0632484
0.0641755
0.0651192
0.0660283
0.0668645
0.0676064
0.0682489
0.0687958
0.0692564
0.0696417
0.0699631
0.0702313
0.0704557
0.0706441
0.0708033
0.0709385
0.0710541
0.0711538
0.0712404
0.0713162
0.0713831
0.0714425
0.0714957
0.0715437
0.0715873
0.0716271
0.0716638
0.0716976
0.0717292
0.0717586
0.0717863
0.0718124
0.0718372
0.0718607
0.0718831
0.0719046
0.0719252
0.071945
0.0719641
0.0719825
0.0720004
0.0720177
0.0720346
0.072051
0.0720669
0.0720825
0.0720977
0.0721125
0.0721271
0.0721413
0.0721552
0.0721689
0.0721823
0.0721955
0.0722084
0.0722211
0.0722336
0.0722459
0.0722581
0.07227
0.0722817
0.0722933
0.0723047
0.0723159
0.072327
0.0723379
0.0723487
0.0723594
0.0723699
0.0723802
0.0723905
0.0724006
0.0724106
0.0724204
0.0724302
0.0724398
0.0724494
0.0724588
0.0724681
0.0724773
0.0724864
0.0724954
0.0725043
0.0725131
0.0725218
0.0725304
0.072539
0.0725474
0.0725558
0.072564
0.0725722
0.0725803
0.0725884
0.0725963
0.0726042
0.072612
0.0726197
0.0726273
0.0726349
0.0726424
0.0726498
0.0726572
0.0726645
0.0726717
0.0726789
0.072686
0.0726931
0.0727
0.072707
0.0727138
0.0727206
0.0727274
0.072734
0.0727407
0.0727472
0.0727538
0.0727602
0.0727666
0.072773
0.0727793
0.0727855
0.0727917
0.0727979
0.072804
0.0728101
0.0728161
0.072822
0.0728279
0.0728338
0.0728396
0.0728454
0.0728512
0.0728569
0.0728625
0.0728681
0.0728737
0.0728792
0.0728847
0.0728902
0.0728956
0.072901
0.0729063
0.0729116
0.0729169
0.0729221
0.0729273
0.0729325
0.0729376
0.0729427
0.0729478
0.0729528
0.0729578
0.0729628
0.0729677
0.0729726
0.0729775
0.0729824
0.0729872
0.072992
0.0729967
0.0730015
0.0730062
0.0730108
0.0730155
0.0730201
0.0730247
0.0730293
0.0730338
0.0730384
0.0730429
0.0730473
0.0730518
0.0730562
0.0730606
0.073065
0.0730694
0.0730737
0.073078
0.0730823
0.0730866
0.0730909
0.0730951
0.0730993
0.0731035
0.0731077
0.0731118
0.073116
0.0731201
0.0731242
0.0731283
0.0731323
0.0731364
0.0731404
0.0731444
0.0731484
0.0731524
0.0731564
0.0731604
0.0731643
0.0731682
0.0731721
0.073176
0.0731799
0.0731838
0.0731876
0.0731914
0.0731953
0.0731991
0.0732029
0.0732067
0.0732104
0.0732142
0.0732179
0.0732217
0.0732254
0.0732291
0.0732328
0.0732365
0.0732402
0.0732438
0.0732475
0.0732511
0.0732548
0.0732584
0.073262
0.0732656
0.0732692
0.0732728
0.0732763
0.0732799
0.0732834
0.073287
0.0732905
0.073294
0.0732975
0.073301
0.0733045
0.073308
0.0733115
0.073315
0.0733184
0.0733219
0.0733253
0.0733287
0.0733321
0.0733355
0.0733389
0.0733423
0.0733457
0.0733491
0.0733525
0.0733558
0.0733592
0.0733625
0.0733658
0.0733692
0.0733725
0.0733758
0.0733791
0.0733824
0.0733857
0.0733889
0.0733922
0.0733955
0.0733987
0.073402
0.0734052
0.0734084
0.0734116
0.0734148
0.0734181
0.0734213
0.0734244
0.0734276
0.0734308
0.073434
0.0734371
0.0734403
0.0734434
0.0734465
0.0734497
0.0734528
0.0734559
0.073459
0.0734621
0.0734652
0.0734683
0.0734713
0.0734744
0.0734775
0.0734805
0.0734835
0.0734866
0.0734896
0.0734926
0.0734956
0.0734986
0.0735016
0.0735046
0.0735076
0.0735105
0.0735135
0.0735165
0.0735194
0.0735223
0.0735253
0.0735282
0.0735311
0.073534
0.0735369
0.0735397
0.0735426
0.0735455
0.0735483
0.0735512
0.073554
0.0735568
0.0735596
0.0735624
0.0735652
0.073568
0.0735708
0.0735735
0.0735763
0.073579
0.0735818
0.0735845
0.0735872
0.0735899
0.0735926
0.0735952
0.0735979
0.0736005
0.0736032
0.0736058
0.0736084
0.073611
0.0736136
0.0736161
0.0736187
0.0736212
0.0736238
0.0736263
0.0736288
0.0736312
0.0736337
0.0736362
0.0736386
0.073641
0.0736434
0.0736458
0.0736482
0.0736505
0.0736529
0.0736552
0.0736575
0.0736598
0.0736621
0.0736643
0.0736665
0.0736688
0.0736709
0.0736731
0.0736753
0.0736774
0.0736795
0.0736816
0.0736837
0.0736857
0.0736878
0.0736898
0.0736918
0.0736937
0.0736957
0.0736976
0.0736995
0.0737014
0.0737032
0.073705
0.0737069
0.0737086
0.0737104
0.0737121
0.0737138
0.0737155
0.0737172
0.0737188
0.0737204
0.073722
0.0737235
0.073725
0.0737265
0.073728
0.0737296
0.0737314
0.0737341
0.0737391
0.0737479
0.0614873
0.0618997
0.0624111
0.0630134
0.0636872
0.0644048
0.0651352
0.0658502
0.0665284
0.0671565
0.0677273
0.0682388
0.0686925
0.0690921
0.0694425
0.0697491
0.0700172
0.0702516
0.0704569
0.0706372
0.0707958
0.0709359
0.0710601
0.0711705
0.0712691
0.0713575
0.0714371
0.071509
0.0715742
0.0716335
0.0716878
0.0717376
0.0717834
0.0718258
0.0718651
0.0719016
0.0719357
0.0719676
0.0719976
0.0720258
0.0720524
0.0720776
0.0721015
0.0721242
0.0721459
0.0721666
0.0721864
0.0722054
0.0722236
0.0722412
0.0722581
0.0722744
0.0722902
0.0723054
0.0723202
0.0723346
0.0723485
0.0723621
0.0723753
0.0723882
0.0724007
0.0724129
0.0724249
0.0724366
0.0724481
0.0724593
0.0724702
0.072481
0.0724916
0.0725019
0.0725121
0.0725221
0.0725319
0.0725416
0.0725511
0.0725605
0.0725697
0.0725787
0.0725877
0.0725965
0.0726052
0.0726137
0.0726222
0.0726305
0.0726387
0.0726468
0.0726548
0.0726628
0.0726706
0.0726783
0.0726859
0.0726935
0.0727009
0.0727083
0.0727156
0.0727228
0.0727299
0.072737
0.072744
0.0727509
0.0727578
0.0727645
0.0727712
0.0727779
0.0727844
0.072791
0.0727974
0.0728038
0.0728101
0.0728164
0.0728226
0.0728288
0.0728349
0.0728409
0.0728469
0.0728529
0.0728588
0.0728646
0.0728704
0.0728762
0.0728819
0.0728875
0.0728931
0.0728987
0.0729042
0.0729097
0.0729151
0.0729205
0.0729259
0.0729312
0.0729364
0.0729416
0.0729468
0.072952
0.0729571
0.0729622
0.0729672
0.0729722
0.0729772
0.0729821
0.072987
0.0729919
0.0729967
0.0730015
0.0730063
0.073011
0.0730157
0.0730204
0.073025
0.0730297
0.0730342
0.0730388
0.0730433
0.0730478
0.0730523
0.0730568
0.0730612
0.0730656
0.0730699
0.0730743
0.0730786
0.0730829
0.0730872
0.0730914
0.0730957
0.0730999
0.0731041
0.0731082
0.0731124
0.0731165
0.0731206
0.0731247
0.0731287
0.0731327
0.0731368
0.0731408
0.0731447
0.0731487
0.0731526
0.0731566
0.0731605
0.0731644
0.0731682
0.0731721
0.0731759
0.0731798
0.0731836
0.0731874
0.0731911
0.0731949
0.0731986
0.0732024
0.0732061
0.0732098
0.0732135
0.0732172
0.0732208
0.0732245
0.0732281
0.0732317
0.0732354
0.073239
0.0732425
0.0732461
0.0732497
0.0732532
0.0732568
0.0732603
0.0732638
0.0732674
0.0732709
0.0732743
0.0732778
0.0732813
0.0732848
0.0732882
0.0732917
0.0732951
0.0732985
0.0733019
0.0733053
0.0733087
0.0733121
0.0733155
0.0733189
0.0733222
0.0733256
0.0733289
0.0733323
0.0733356
0.0733389
0.0733422
0.0733455
0.0733488
0.0733521
0.0733554
0.0733587
0.0733619
0.0733652
0.0733684
0.0733717
0.0733749
0.0733782
0.0733814
0.0733846
0.0733878
0.073391
0.0733942
0.0733974
0.0734006
0.0734037
0.0734069
0.0734101
0.0734132
0.0734164
0.0734195
0.0734226
0.0734257
0.0734289
0.073432
0.0734351
0.0734382
0.0734413
0.0734444
0.0734474
0.0734505
0.0734536
0.0734566
0.0734597
0.0734627
0.0734658
0.0734688
0.0734718
0.0734748
0.0734779
0.0734809
0.0734839
0.0734869
0.0734898
0.0734928
0.0734958
0.0734988
0.0735017
0.0735047
0.0735076
0.0735106
0.0735135
0.0735164
0.0735194
0.0735223
0.0735252
0.0735281
0.073531
0.0735339
0.0735367
0.0735396
0.0735425
0.0735453
0.0735482
0.073551
0.0735539
0.0735567
0.0735595
0.0735623
0.0735651
0.073568
0.0735707
0.0735735
0.0735763
0.0735791
0.0735818
0.0735846
0.0735873
0.0735901
0.0735928
0.0735955
0.0735982
0.0736009
0.0736036
0.0736063
0.073609
0.0736117
0.0736143
0.073617
0.0736196
0.0736222
0.0736248
0.0736274
0.07363
0.0736326
0.0736352
0.0736378
0.0736403
0.0736429
0.0736454
0.0736479
0.0736504
0.0736529
0.0736554
0.0736578
0.0736603
0.0736627
0.0736652
0.0736676
0.07367
0.0736724
0.0736748
0.0736771
0.0736795
0.0736818
0.0736841
0.0736864
0.0736887
0.073691
0.0736932
0.0736955
0.0736977
0.0736999
0.0737021
0.0737042
0.0737064
0.0737085
0.0737106
0.0737127
0.0737148
0.0737169
0.0737189
0.0737209
0.0737229
0.0737249
0.0737269
0.0737288
0.0737307
0.0737326
0.0737345
0.0737363
0.0737382
0.07374
0.0737418
0.0737435
0.0737453
0.073747
0.0737487
0.0737504
0.073752
0.0737536
0.0737552
0.0737568
0.0737583
0.0737598
0.0737613
0.0737628
0.0737643
0.0737657
0.0737671
0.0737686
0.0737703
0.0737729
0.0737778
0.0737865
0.0613929
0.0616395
0.0619447
0.0623136
0.0627464
0.0632374
0.0637743
0.0643413
0.0649214
0.0654994
0.0660623
0.0666003
0.0671066
0.0675774
0.0680111
0.0684076
0.0687682
0.0690949
0.0693902
0.0696567
0.069897
0.0701138
0.0703095
0.0704864
0.0706463
0.0707914
0.070923
0.0710428
0.0711521
0.0712519
0.0713434
0.0714273
0.0715045
0.0715757
0.0716415
0.0717025
0.071759
0.0718117
0.0718608
0.0719066
0.0719495
0.0719897
0.0720276
0.0720632
0.0720968
0.0721285
0.0721585
0.072187
0.072214
0.0722398
0.0722643
0.0722876
0.07231
0.0723313
0.0723518
0.0723714
0.0723903
0.0724084
0.0724259
0.0724427
0.072459
0.0724746
0.0724898
0.0725045
0.0725187
0.0725325
0.0725459
0.0725589
0.0725715
0.0725838
0.0725957
0.0726074
0.0726187
0.0726298
0.0726407
0.0726512
0.0726616
0.0726717
0.0726816
0.0726912
0.0727007
0.07271
0.0727191
0.0727281
0.0727368
0.0727455
0.0727539
0.0727622
0.0727704
0.0727785
0.0727864
0.0727941
0.0728018
0.0728094
0.0728168
0.0728241
0.0728313
0.0728384
0.0728454
0.0728524
0.0728592
0.0728659
0.0728726
0.0728791
0.0728856
0.072892
0.0728984
0.0729046
0.0729108
0.0729169
0.0729229
0.0729289
0.0729348
0.0729407
0.0729464
0.0729522
0.0729578
0.0729634
0.072969
0.0729744
0.0729799
0.0729853
0.0729906
0.0729959
0.0730011
0.0730063
0.0730114
0.0730165
0.0730215
0.0730265
0.0730315
0.0730364
0.0730413
0.0730461
0.0730509
0.0730557
0.0730604
0.073065
0.0730697
0.0730743
0.0730789
0.0730834
0.0730879
0.0730924
0.0730968
0.0731012
0.0731056
0.0731099
0.0731142
0.0731185
0.0731227
0.073127
0.0731312
0.0731353
0.0731395
0.0731436
0.0731477
0.0731517
0.0731558
0.0731598
0.0731638
0.0731678
0.0731717
0.0731756
0.0731795
0.0731834
0.0731873
0.0731911
0.0731949
0.0731987
0.0732025
0.0732063
0.07321
0.0732137
0.0732174
0.0732211
0.0732248
0.0732285
0.0732321
0.0732357
0.0732393
0.0732429
0.0732465
0.07325
0.0732536
0.0732571
0.0732606
0.0732641
0.0732676
0.0732711
0.0732745
0.073278
0.0732814
0.0732848
0.0732883
0.0732916
0.073295
0.0732984
0.0733018
0.0733051
0.0733085
0.0733118
0.0733151
0.0733184
0.0733217
0.073325
0.0733283
0.0733316
0.0733349
0.0733381
0.0733414
0.0733446
0.0733478
0.0733511
0.0733543
0.0733575
0.0733607
0.0733639
0.0733671
0.0733702
0.0733734
0.0733766
0.0733797
0.0733829
0.073386
0.0733892
0.0733923
0.0733954
0.0733985
0.0734016
0.0734047
0.0734078
0.0734109
0.073414
0.0734171
0.0734201
0.0734232
0.0734263
0.0734293
0.0734324
0.0734354
0.0734384
0.0734415
0.0734445
0.0734475
0.0734505
0.0734535
0.0734565
0.0734595
0.0734625
0.0734655
0.0734684
0.0734714
0.0734744
0.0734773
0.0734803
0.0734832
0.0734862
0.0734891
0.0734921
0.073495
0.0734979
0.0735008
0.0735037
0.0735066
0.0735095
0.0735124
0.0735153
0.0735182
0.0735211
0.0735239
0.0735268
0.0735297
0.0735325
0.0735354
0.0735382
0.0735411
0.0735439
0.0735467
0.0735495
0.0735524
0.0735552
0.073558
0.0735608
0.0735636
0.0735664
0.0735691
0.0735719
0.0735747
0.0735775
0.0735802
0.073583
0.0735857
0.0735885
0.0735912
0.0735939
0.0735967
0.0735994
0.0736021
0.0736048
0.0736075
0.0736102
0.0736129
0.0736156
0.0736182
0.0736209
0.0736236
0.0736262
0.0736289
0.0736315
0.0736341
0.0736367
0.0736394
0.073642
0.0736446
0.0736472
0.0736498
0.0736523
0.0736549
0.0736575
0.07366
0.0736626
0.0736651
0.0736676
0.0736701
0.0736726
0.0736751
0.0736776
0.0736801
0.0736826
0.073685
0.0736875
0.0736899
0.0736924
0.0736948
0.0736972
0.0736996
0.073702
0.0737043
0.0737067
0.073709
0.0737114
0.0737137
0.073716
0.0737183
0.0737206
0.0737229
0.0737251
0.0737274
0.0737296
0.0737318
0.073734
0.0737362
0.0737383
0.0737405
0.0737426
0.0737448
0.0737469
0.073749
0.073751
0.0737531
0.0737551
0.0737571
0.0737591
0.0737611
0.0737631
0.073765
0.073767
0.0737689
0.0737708
0.0737726
0.0737745
0.0737763
0.0737781
0.0737799
0.0737817
0.0737834
0.0737851
0.0737868
0.0737885
0.0737902
0.0737918
0.0737934
0.073795
0.0737965
0.0737981
0.0737996
0.0738011
0.0738026
0.073804
0.0738054
0.0738068
0.0738082
0.0738095
0.0738109
0.0738123
0.0738139
0.0738165
0.0738213
0.0738299
0.0613427
0.0615007
0.0616908
0.0619183
0.0621878
0.0625019
0.0628597
0.0632567
0.063686
0.0641389
0.0646062
0.0650789
0.0655487
0.0660086
0.0664532
0.0668783
0.0672812
0.0676604
0.068015
0.0683453
0.0686517
0.0689354
0.0691974
0.0694391
0.0696619
0.0698674
0.0700567
0.0702314
0.0703925
0.0705413
0.0706789
0.0708062
0.0709242
0.0710336
0.0711352
0.0712298
0.0713179
0.0714
0.0714767
0.0715485
0.0716158
0.0716788
0.0717381
0.0717938
0.0718462
0.0718957
0.0719425
0.0719866
0.0720285
0.0720681
0.0721057
0.0721414
0.0721754
0.0722078
0.0722387
0.0722681
0.0722962
0.0723231
0.0723489
0.0723735
0.0723972
0.0724199
0.0724417
0.0724627
0.0724829
0.0725024
0.0725211
0.0725392
0.0725567
0.0725736
0.0725899
0.0726057
0.072621
0.0726358
0.0726502
0.0726642
0.0726778
0.0726909
0.0727037
0.0727162
0.0727283
0.0727401
0.0727516
0.0727628
0.0727738
0.0727845
0.0727949
0.0728051
0.072815
0.0728248
0.0728343
0.0728436
0.0728527
0.0728617
0.0728704
0.072879
0.0728874
0.0728957
0.0729038
0.0729117
0.0729196
0.0729272
0.0729348
0.0729422
0.0729495
0.0729566
0.0729637
0.0729706
0.0729774
0.0729842
0.0729908
0.0729973
0.0730037
0.0730101
0.0730163
0.0730225
0.0730285
0.0730345
0.0730404
0.0730462
0.073052
0.0730577
0.0730633
0.0730688
0.0730743
0.0730797
0.0730851
0.0730903
0.0730956
0.0731007
0.0731058
0.0731109
0.0731159
0.0731208
0.0731257
0.0731305
0.0731353
0.0731401
0.0731447