/*--------------------------------*- C++ -*----------------------------------*\
| =========                 |                                                 |
| \\      /  F ield         | OpenFOAM: The Open Source CFD Toolbox           |
|  \\    /   O peration     | Version:  2506                                  |
|   \\  /    A nd           | Website:  www.openfoam.com                      |
|    \\/     M anipulation  |                                                 |
\*---------------------------------------------------------------------------*/
FoamFile
{
    version     2.0;
    format      ascii;
    arch        "LSB;label=32;scalar=64";
    class       volScalarField;
    location    "800";
    object      p;
}
// * * * * * * * * * * * * * * * * * * * * * * * * * * * * * * * * * * * * * //

dimensions      [0 2 -2 0 0 0 0];

internalField   nonuniform List<scalar> 
131949
(
-32.7262
-25.1178
-21.4393
-20.069
-18.8412
-17.6959
-16.7868
-16.0379
-15.3792
-14.792
-14.2662
-13.7903
-13.3551
-12.9542
-12.5828
-12.2369
-11.9132
-11.6091
-11.3223
-11.0511
-10.7939
-10.5492
-10.316
-10.0933
-9.88016
-9.67582
-9.47961
-9.29092
-9.10921
-8.93401
-8.76488
-8.60143
-8.44329
-8.29016
-8.14174
-7.99776
-7.85797
-7.72216
-7.5901
-7.46162
-7.33653
-7.21467
-7.09589
-6.98005
-6.86701
-6.75666
-6.64887
-6.54355
-6.44058
-6.33988
-6.24136
-6.14493
-6.05052
-5.95805
-5.86745
-5.77866
-5.69161
-5.60624
-5.5225
-5.44033
-5.35968
-5.28051
-5.20277
-5.12642
-5.0514
-4.9777
-4.90526
-4.83405
-4.76403
-4.69518
-4.62746
-4.56085
-4.4953
-4.4308
-4.36732
-4.30483
-4.2433
-4.18273
-4.12307
-4.06431
-4.00644
-3.94942
-3.89324
-3.83788
-3.78333
-3.72956
-3.67656
-3.62431
-3.57279
-3.522
-3.47192
-3.42253
-3.37382
-3.32577
-3.27838
-3.23163
-3.18551
-3.14001
-3.09511
-3.05081
-3.00709
-2.96395
-2.92137
-2.87935
-2.83787
-2.79693
-2.75652
-2.71663
-2.67725
-2.63837
-2.59999
-2.56209
-2.52468
-2.48774
-2.45126
-2.41525
-2.37968
-2.34457
-2.30989
-2.27565
-2.24183
-2.20844
-2.17546
-2.14289
-2.11073
-2.07897
-2.0476
-2.01663
-1.98603
-1.95582
-1.92598
-1.89652
-1.86742
-1.83868
-1.8103
-1.78228
-1.7546
-1.72727
-1.70028
-1.67362
-1.6473
-1.62132
-1.59565
-1.57031
-1.54529
-1.52059
-1.49619
-1.47211
-1.44833
-1.42486
-1.40168
-1.3788
-1.35622
-1.33392
-1.31192
-1.29019
-1.26875
-1.24759
-1.2267
-1.20608
-1.18574
-1.16566
-1.14585
-1.1263
-1.10701
-1.08798
-1.0692
-1.05068
-1.0324
-1.01437
-0.996589
-0.979047
-0.961745
-0.94468
-0.92785
-0.911253
-0.894886
-0.878747
-0.862834
-0.847145
-0.831676
-0.816427
-0.801394
-0.786575
-0.771969
-0.757573
-0.743385
-0.729403
-0.715624
-0.702046
-0.688668
-0.675487
-0.662501
-0.649708
-0.637106
-0.624692
-0.612466
-0.600424
-0.588564
-0.576886
-0.565386
-0.554062
-0.542913
-0.531937
-0.521132
-0.510495
-0.500025
-0.489719
-0.479577
-0.469595
-0.459773
-0.450108
-0.440598
-0.431242
-0.422037
-0.412982
-0.404076
-0.395315
-0.386698
-0.378225
-0.369892
-0.361698
-0.353642
-0.345721
-0.337934
-0.330279
-0.322755
-0.31536
-0.308092
-0.300949
-0.293931
-0.287034
-0.280259
-0.273603
-0.267064
-0.260642
-0.254334
-0.248139
-0.242056
-0.236082
-0.230217
-0.22446
-0.218808
-0.21326
-0.207815
-0.202472
-0.197229
-0.192084
-0.187037
-0.182085
-0.177229
-0.172465
-0.167794
-0.163214
-0.158723
-0.15432
-0.150004
-0.145774
-0.141629
-0.137567
-0.133587
-0.129689
-0.12587
-0.122129
-0.118467
-0.11488
-0.111369
-0.107932
-0.104569
-0.101277
-0.0980564
-0.0949056
-0.0918237
-0.0888096
-0.0858623
-0.0829809
-0.0801642
-0.0774113
-0.0747213
-0.0720932
-0.069526
-0.0670187
-0.0645705
-0.0621804
-0.0598474
-0.0575708
-0.0553495
-0.0531827
-0.0510696
-0.0490092
-0.0470007
-0.0450433
-0.043136
-0.0412782
-0.0394688
-0.0377073
-0.0359927
-0.0343242
-0.0327011
-0.0311226
-0.0295879
-0.0280963
-0.026647
-0.0252393
-0.0238724
-0.0225456
-0.0212583
-0.0200096
-0.0187989
-0.0176256
-0.0164889
-0.0153881
-0.0143226
-0.0132918
-0.0122949
-0.0113314
-0.0104005
-0.00950181
-0.00863454
-0.00779813
-0.00699197
-0.00621547
-0.00546804
-0.0047491
-0.00405809
-0.00339443
-0.00275758
-0.00214697
-0.00156207
-0.00100234
-0.000467253
4.37101e-05
0.000531066
0.000995323
0.00143698
0.00185654
0.00225447
0.00263128
0.00298742
0.00332337
0.0036396
0.00393655
0.00421468
0.00447444
0.00471625
0.00494057
0.00514781
0.00533839
0.00551274
0.00567126
0.00581437
0.00594247
0.00605595
0.0061552
0.00624062
0.0063126
0.00637151
0.00641772
0.00645162
0.00647358
0.00648396
0.00648312
0.00647143
0.00644925
0.00641694
0.00637485
0.00632334
0.00626275
0.00619345
0.00611579
0.00603012
0.0059368
0.00583618
0.00572862
0.00561447
0.00549412
0.00536791
0.00523624
0.00509946
0.00495799
0.0048122
0.0046625
0.00450932
0.00435308
0.00419422
0.00403321
0.00387054
0.0037067
0.00354224
0.00337771
0.00321372
0.00305091
0.00288993
0.00273174
0.00257622
0.00242886
0.00226837
0.00219993
0.00173019
0.00365956
-25.1775
-22.6126
-20.6472
-19.4934
-18.4544
-17.4705
-16.6347
-15.9229
-15.2914
-14.7236
-14.2111
-13.7449
-13.317
-12.9218
-12.5549
-12.2126
-11.8919
-11.5902
-11.3055
-11.036
-10.7802
-10.5368
-10.3048
-10.083
-9.87067
-9.66707
-9.47152
-9.28341
-9.10223
-8.9275
-8.75879
-8.59572
-8.43794
-8.28512
-8.13699
-7.99327
-7.85373
-7.71813
-7.58628
-7.45799
-7.33308
-7.21138
-7.09275
-6.97705
-6.86415
-6.75392
-6.64625
-6.54103
-6.43817
-6.33756
-6.23913
-6.14279
-6.04846
-5.95606
-5.86553
-5.7768
-5.68982
-5.60451
-5.52082
-5.43871
-5.35811
-5.27899
-5.2013
-5.12499
-5.05002
-4.97635
-4.90395
-4.83278
-4.7628
-4.69398
-4.62629
-4.55971
-4.49419
-4.42972
-4.36626
-4.3038
-4.2423
-4.18175
-4.12211
-4.06338
-4.00552
-3.94853
-3.89237
-3.83703
-3.78249
-3.72874
-3.67576
-3.62352
-3.57203
-3.52125
-3.47118
-3.42181
-3.37311
-3.32508
-3.2777
-3.23096
-3.18485
-3.13936
-3.09448
-3.05019
-3.00648
-2.96335
-2.92078
-2.87877
-2.8373
-2.79637
-2.75597
-2.71608
-2.67671
-2.63784
-2.59947
-2.56158
-2.52418
-2.48724
-2.45077
-2.41477
-2.37921
-2.3441
-2.30943
-2.27519
-2.24138
-2.20799
-2.17502
-2.14246
-2.11031
-2.07855
-2.04719
-2.01622
-1.98563
-1.95542
-1.92559
-1.89613
-1.86704
-1.8383
-1.80993
-1.78191
-1.75423
-1.72691
-1.69992
-1.67327
-1.64696
-1.62097
-1.59531
-1.56997
-1.54496
-1.52026
-1.49587
-1.47179
-1.44801
-1.42454
-1.40137
-1.37849
-1.35591
-1.33362
-1.31162
-1.28989
-1.26846
-1.2473
-1.22641
-1.2058
-1.18546
-1.16538
-1.14558
-1.12603
-1.10674
-1.08771
-1.06894
-1.05042
-1.03214
-1.01412
-0.996334
-0.978794
-0.961495
-0.944432
-0.927605
-0.91101
-0.894646
-0.878509
-0.862599
-0.846912
-0.831445
-0.816198
-0.801168
-0.786352
-0.771748
-0.757354
-0.743169
-0.729188
-0.715412
-0.701837
-0.688461
-0.675282
-0.662298
-0.649507
-0.636907
-0.624496
-0.612272
-0.600232
-0.588375
-0.576698
-0.5652
-0.553879
-0.542732
-0.531758
-0.520955
-0.51032
-0.499852
-0.489549
-0.479408
-0.469429
-0.459608
-0.449945
-0.440438
-0.431083
-0.421881
-0.412828
-0.403923
-0.395164
-0.386549
-0.378078
-0.369746
-0.361555
-0.3535
-0.345581
-0.337796
-0.330143
-0.32262
-0.315227
-0.30796
-0.30082
-0.293803
-0.286908
-0.280135
-0.27348
-0.266943
-0.260522
-0.254216
-0.248023
-0.241941
-0.235969
-0.230106
-0.22435
-0.2187
-0.213153
-0.20771
-0.202368
-0.197126
-0.191983
-0.186937
-0.181987
-0.177132
-0.17237
-0.1677
-0.163121
-0.158631
-0.15423
-0.149916
-0.145687
-0.141543
-0.137482
-0.133504
-0.129606
-0.125788
-0.122049
-0.118388
-0.114803
-0.111293
-0.107857
-0.104494
-0.101204
-0.0979843
-0.0948346
-0.0917538
-0.0887408
-0.0857946
-0.0829142
-0.0800986
-0.0773468
-0.0746578
-0.0720306
-0.0694644
-0.0669581
-0.0645109
-0.0621217
-0.0597898
-0.057514
-0.0552937
-0.0531279
-0.0510156
-0.0489561
-0.0469485
-0.044992
-0.0430856
-0.0412286
-0.0394201
-0.0376594
-0.0359456
-0.034278
-0.0326557
-0.031078
-0.0295441
-0.0280533
-0.0266048
-0.0251978
-0.0238317
-0.0225056
-0.021219
-0.0199711
-0.0187612
-0.0175885
-0.0164525
-0.0153524
-0.0142876
-0.0132575
-0.0122613
-0.0112984
-0.0103682
-0.00947014
-0.00860351
-0.00776772
-0.00696218
-0.00618629
-0.00543947
-0.00472113
-0.0040307
-0.00336763
-0.00273134
-0.0021213
-0.00153696
-0.000977777
-0.000443234
6.71938e-05
0.000554022
0.00101776
0.0014589
0.00187795
0.00227539
0.0026517
0.00300735
0.00334282
0.00365857
0.00395506
0.00423273
0.00449203
0.0047334
0.00495727
0.00516407
0.00535422
0.00552814
0.00568624
0.00582893
0.00595661
0.00606968
0.00616854
0.00625356
0.00632514
0.00638366
0.00642949
0.006463
0.00648458
0.00649458
0.00649337
0.00648131
0.00645876
0.00642608
0.00638362
0.00633174
0.00627079
0.00620112
0.0061231
0.00603706
0.00594337
0.00584238
0.00573444
0.00561992
0.00549918
0.00537259
0.00524052
0.00510335
0.00496146
0.00481525
0.00466512
0.00451149
0.00435479
0.00419545
0.00403394
0.00387074
0.00370635
0.00354129
0.00337614
0.00321147
0.00304793
0.00288617
0.00272706
0.00257081
0.00242134
0.00226423
0.00217362
0.00182001
0.00334905
-21.9674
-21.1667
-19.9282
-18.8798
-17.9837
-17.1503
-16.4013
-15.7401
-15.1465
-14.6074
-14.1157
-13.665
-13.2493
-12.8638
-12.5046
-12.1686
-11.853
-11.5557
-11.2746
-11.0082
-10.7551
-10.514
-10.2839
-10.0639
-9.85309
-9.65085
-9.45649
-9.26946
-9.08924
-8.91538
-8.74745
-8.58508
-8.42794
-8.27571
-8.12812
-7.98489
-7.84579
-7.71061
-7.57915
-7.45121
-7.32662
-7.20523
-7.08688
-6.97145
-6.85879
-6.74878
-6.64133
-6.53631
-6.43364
-6.33321
-6.23495
-6.13876
-6.04458
-5.95232
-5.86192
-5.77332
-5.68645
-5.60126
-5.51768
-5.43566
-5.35517
-5.27614
-5.19853
-5.1223
-5.04741
-4.97382
-4.90149
-4.83038
-4.76047
-4.69172
-4.62409
-4.55756
-4.4921
-4.42768
-4.36428
-4.30186
-4.24041
-4.1799
-4.12031
-4.06162
-4.00381
-3.94685
-3.89073
-3.83542
-3.78092
-3.7272
-3.67425
-3.62205
-3.57058
-3.51984
-3.4698
-3.42045
-3.37178
-3.32377
-3.27642
-3.2297
-3.18362
-3.13815
-3.09328
-3.04901
-3.00533
-2.96222
-2.91967
-2.87767
-2.83622
-2.79531
-2.75493
-2.71506
-2.6757
-2.63685
-2.59849
-2.56062
-2.52323
-2.48631
-2.44985
-2.41386
-2.37831
-2.34322
-2.30856
-2.27433
-2.24054
-2.20716
-2.1742
-2.14165
-2.1095
-2.07776
-2.04641
-2.01544
-1.98487
-1.95467
-1.92485
-1.8954
-1.86631
-1.83759
-1.80922
-1.7812
-1.75354
-1.72622
-1.69924
-1.6726
-1.64629
-1.62031
-1.59466
-1.56933
-1.54432
-1.51963
-1.49525
-1.47117
-1.44741
-1.42394
-1.40078
-1.37791
-1.35533
-1.33304
-1.31104
-1.28933
-1.2679
-1.24674
-1.22586
-1.20526
-1.18492
-1.16485
-1.14505
-1.12551
-1.10623
-1.0872
-1.06843
-1.04991
-1.03165
-1.01362
-0.995848
-0.978313
-0.961018
-0.943961
-0.927138
-0.910548
-0.894188
-0.878057
-0.862151
-0.846468
-0.831007
-0.815764
-0.800738
-0.785927
-0.771327
-0.756938
-0.742756
-0.728781
-0.715008
-0.701438
-0.688066
-0.674891
-0.661912
-0.649125
-0.63653
-0.624123
-0.611902
-0.599867
-0.588014
-0.576341
-0.564847
-0.55353
-0.542387
-0.531417
-0.520618
-0.509987
-0.499523
-0.489224
-0.479087
-0.469112
-0.459295
-0.449636
-0.440132
-0.430781
-0.421582
-0.412533
-0.403632
-0.394876
-0.386266
-0.377797
-0.36947
-0.361281
-0.35323
-0.345315
-0.337533
-0.329884
-0.322365
-0.314974
-0.307711
-0.300574
-0.29356
-0.286669
-0.279899
-0.273247
-0.266713
-0.260296
-0.253992
-0.247802
-0.241723
-0.235755
-0.229895
-0.224141
-0.218494
-0.212951
-0.20751
-0.202171
-0.196932
-0.191791
-0.186748
-0.181801
-0.176948
-0.172189
-0.167522
-0.162945
-0.158458
-0.154059
-0.149747
-0.145521
-0.14138
-0.137321
-0.133345
-0.12945
-0.125635
-0.121898
-0.118238
-0.114656
-0.111148
-0.107715
-0.104354
-0.101066
-0.0978483
-0.0947008
-0.091622
-0.0886111
-0.0856669
-0.0827885
-0.0799749
-0.0772251
-0.074538
-0.0719129
-0.0693485
-0.0668442
-0.0643988
-0.0620115
-0.0596813
-0.0574074
-0.0551889
-0.0530248
-0.0509143
-0.0488566
-0.0468507
-0.0448958
-0.0429911
-0.0411357
-0.0393289
-0.0375698
-0.0358576
-0.0341916
-0.0325709
-0.0309947
-0.0294623
-0.027973
-0.026526
-0.0251205
-0.0237558
-0.0224312
-0.021146
-0.0198995
-0.0186909
-0.0175197
-0.016385
-0.0152862
-0.0142228
-0.0131939
-0.012199
-0.0112374
-0.0103085
-0.00941163
-0.00854622
-0.00771164
-0.00690728
-0.00613257
-0.0053869
-0.00466971
-0.00398041
-0.00331844
-0.00268326
-0.0020743
-0.00149102
-0.000932897
-0.000399394
0.000110008
0.000595824
0.00105856
0.00149872
0.0019168
0.00231328
0.00268864
0.00304336
0.00337792
0.00369276
0.00398835
0.00426513
0.00452356
0.00476407
0.00498709
0.00519305
0.00538237
0.00555548
0.00571277
0.00585466
0.00598156
0.00609385
0.00619193
0.00627619
0.00634702
0.00640479
0.00644988
0.00648266
0.00650351
0.00651279
0.00651086
0.00649809
0.00647483
0.00644145
0.00639829
0.00634571
0.00628407
0.0062137
0.00613498
0.00604824
0.00595385
0.00585215
0.0057435
0.00562826
0.0055068
0.00537947
0.00524665
0.00510871
0.00496604
0.00481903
0.00466808
0.0045136
0.00435601
0.00419576
0.0040333
0.00386909
0.00370365
0.00353748
0.00337113
0.00320519
0.00304027
0.00287702
0.00271625
0.00255822
0.00240635
0.00224787
0.002149
0.00180777
0.00326362
-20.0912
-19.7277
-18.9409
-18.1359
-17.4146
-16.7278
-16.0803
-15.4868
-14.9432
-14.442
-13.9789
-13.55
-13.1514
-12.7795
-12.4313
-12.1042
-11.7961
-11.5049
-11.2291
-10.9672
-10.7179
-10.4802
-10.253
-10.0355
-9.82697
-9.62671
-9.43412
-9.24867
-9.06987
-8.89728
-8.7305
-8.56918
-8.41299
-8.26163
-8.11483
-7.97233
-7.8339
-7.69934
-7.56844
-7.44103
-7.31693
-7.19599
-7.07806
-6.96302
-6.85073
-6.74107
-6.63393
-6.52922
-6.42682
-6.32666
-6.22865
-6.1327
-6.03873
-5.94669
-5.85649
-5.76807
-5.68138
-5.59635
-5.51294
-5.43107
-5.35072
-5.27183
-5.19435
-5.11825
-5.04348
-4.97
-4.89778
-4.82678
-4.75696
-4.6883
-4.62077
-4.55432
-4.48895
-4.42461
-4.36128
-4.29894
-4.23756
-4.17712
-4.11759
-4.05897
-4.00121
-3.94431
-3.88825
-3.833
-3.77855
-3.72488
-3.67198
-3.61982
-3.5684
-3.5177
-3.4677
-3.41839
-3.36976
-3.32179
-3.27448
-3.2278
-3.18175
-3.13631
-3.09148
-3.04724
-3.00359
-2.9605
-2.91798
-2.87602
-2.8346
-2.79371
-2.75335
-2.71351
-2.67418
-2.63535
-2.59701
-2.55916
-2.52179
-2.48489
-2.44846
-2.41248
-2.37696
-2.34188
-2.30724
-2.27303
-2.23925
-2.2059
-2.17295
-2.14042
-2.10829
-2.07656
-2.04522
-2.01428
-1.98371
-1.95353
-1.92372
-1.89428
-1.86521
-1.8365
-1.80814
-1.78014
-1.75249
-1.72518
-1.69822
-1.67159
-1.64529
-1.61932
-1.59368
-1.56836
-1.54336
-1.51868
-1.49431
-1.47024
-1.44649
-1.42303
-1.39987
-1.37701
-1.35445
-1.33217
-1.31018
-1.28847
-1.26705
-1.2459
-1.22503
-1.20443
-1.18411
-1.16405
-1.14425
-1.12472
-1.10544
-1.08643
-1.06767
-1.04916
-1.03089
-1.01288
-0.995111
-0.977584
-0.960297
-0.943246
-0.926431
-0.909848
-0.893496
-0.877371
-0.861472
-0.845796
-0.830342
-0.815106
-0.800087
-0.785282
-0.770689
-0.756307
-0.742132
-0.728163
-0.714397
-0.700833
-0.687468
-0.6743
-0.661327
-0.648547
-0.635957
-0.623557
-0.611343
-0.599313
-0.587467
-0.5758
-0.564313
-0.553001
-0.541865
-0.530901
-0.520107
-0.509482
-0.499024
-0.488731
-0.4786
-0.468631
-0.45882
-0.449166
-0.439668
-0.430323
-0.42113
-0.412086
-0.40319
-0.394441
-0.385835
-0.377373
-0.369051
-0.360867
-0.352822
-0.344911
-0.337135
-0.329491
-0.321977
-0.314592
-0.307334
-0.300201
-0.293193
-0.286306
-0.279541
-0.272894
-0.266365
-0.259952
-0.253653
-0.247468
-0.241394
-0.235429
-0.229574
-0.223825
-0.218182
-0.212643
-0.207207
-0.201872
-0.196637
-0.191501
-0.186461
-0.181518
-0.17667
-0.171914
-0.167251
-0.162679
-0.158195
-0.1538
-0.149492
-0.14527
-0.141132
-0.137077
-0.133105
-0.129213
-0.125401
-0.121668
-0.118012
-0.114433
-0.110928
-0.107498
-0.104141
-0.100856
-0.0976419
-0.0944975
-0.0914219
-0.0884141
-0.085473
-0.0825977
-0.0797871
-0.0770403
-0.0743562
-0.071734
-0.0691725
-0.066671
-0.0642285
-0.061844
-0.0595166
-0.0572454
-0.0550296
-0.0528682
-0.0507604
-0.0487052
-0.0467019
-0.0447496
-0.0428475
-0.0409946
-0.0391903
-0.0374336
-0.0357238
-0.0340602
-0.0324418
-0.030868
-0.0293379
-0.0278509
-0.0264061
-0.0250028
-0.0236404
-0.022318
-0.0210349
-0.0197905
-0.0185841
-0.0174149
-0.0162822
-0.0151855
-0.014124
-0.0130971
-0.0121042
-0.0111445
-0.0102175
-0.00932248
-0.00845892
-0.00762616
-0.00682361
-0.00605067
-0.00530676
-0.00459129
-0.0039037
-0.00324342
-0.0026099
-0.00200258
-0.00142092
-0.000864391
-0.000332463
0.000175386
0.00065967
0.0011209
0.00155956
0.00197617
0.0023712
0.00274513
0.00309844
0.0034316
0.00374507
0.0040393
0.00431475
0.00457186
0.00481106
0.0050328
0.00523749
0.00542556
0.00559742
0.0057535
0.00589418
0.00601988
0.00613099
0.00622791
0.00631102
0.0063807
0.00643734
0.00648131
0.00651298
0.00653273
0.00654092
0.00653791
0.00652406
0.00649974
0.00646529
0.00642107
0.00636743
0.00630473
0.00623332
0.00615354
0.00606574
0.00597029
0.00586752
0.0057578
0.00564147
0.00551891
0.00539047
0.00525652
0.00511743
0.00497358
0.00482536
0.00467317
0.00451741
0.0043585
0.00419687
0.00403297
0.00386726
0.00370023
0.00353239
0.00336427
0.00319642
0.00302946
0.00286399
0.00270079
0.0025401
0.00238509
0.00222368
0.00211852
0.00177948
0.00319294
-18.6918
-18.4955
-18.0057
-17.4181
-16.8405
-16.2717
-15.7174
-15.1927
-14.7014
-14.2411
-13.8102
-13.4066
-13.0282
-12.6727
-12.3379
-12.0219
-11.7231
-11.4397
-11.1705
-10.9143
-10.6699
-10.4364
-10.2129
-9.99864
-9.79298
-9.59526
-9.40495
-9.22153
-9.04456
-8.87361
-8.70833
-8.54836
-8.39341
-8.24317
-8.09739
-7.95584
-7.81828
-7.68452
-7.55436
-7.42763
-7.30417
-7.18382
-7.06645
-6.95192
-6.8401
-6.73089
-6.62417
-6.51985
-6.41783
-6.31802
-6.22033
-6.12469
-6.03102
-5.93924
-5.84931
-5.76114
-5.67468
-5.58987
-5.50666
-5.425
-5.34484
-5.26612
-5.18882
-5.11288
-5.03826
-4.96494
-4.89286
-4.82199
-4.75231
-4.68378
-4.61636
-4.55003
-4.48476
-4.42053
-4.3573
-4.29506
-4.23377
-4.17342
-4.11399
-4.05544
-3.99776
-3.94094
-3.88495
-3.82977
-3.77539
-3.72179
-3.66895
-3.61686
-3.5655
-3.51486
-3.46491
-3.41566
-3.36708
-3.31916
-3.2719
-3.22527
-3.17926
-3.13387
-3.08908
-3.04488
-3.00127
-2.95823
-2.91575
-2.87382
-2.83243
-2.79158
-2.75125
-2.71145
-2.67215
-2.63335
-2.59504
-2.55722
-2.51988
-2.48301
-2.4466
-2.41065
-2.37516
-2.3401
-2.30549
-2.27131
-2.23755
-2.20421
-2.17129
-2.13878
-2.10667
-2.07496
-2.04364
-2.01272
-1.98217
-1.95201
-1.92222
-1.8928
-1.86374
-1.83505
-1.80671
-1.77873
-1.75109
-1.7238
-1.69685
-1.67023
-1.64395
-1.618
-1.59237
-1.56707
-1.54208
-1.51741
-1.49305
-1.469
-1.44526
-1.42182
-1.39867
-1.37582
-1.35327
-1.331
-1.30903
-1.28733
-1.26592
-1.24478
-1.22392
-1.20334
-1.18302
-1.16297
-1.14319
-1.12366
-1.1044
-1.0854
-1.06664
-1.04814
-1.02989
-1.01189
-0.994129
-0.976612
-0.959334
-0.942293
-0.925487
-0.908914
-0.892571
-0.876456
-0.860566
-0.8449
-0.829454
-0.814228
-0.799218
-0.784422
-0.769838
-0.755465
-0.741299
-0.727338
-0.713582
-0.700026
-0.68667
-0.67351
-0.660546
-0.647774
-0.635193
-0.622801
-0.610596
-0.598575
-0.586736
-0.575078
-0.563599
-0.552296
-0.541167
-0.530211
-0.519426
-0.508809
-0.498359
-0.488073
-0.47795
-0.467989
-0.458186
-0.44854
-0.439049
-0.429712
-0.420526
-0.41149
-0.402602
-0.393859
-0.385261
-0.376806
-0.368491
-0.360315
-0.352276
-0.344373
-0.336603
-0.328966
-0.321459
-0.314081
-0.306829
-0.299704
-0.292702
-0.285822
-0.279063
-0.272422
-0.2659
-0.259493
-0.253201
-0.247021
-0.240953
-0.234995
-0.229145
-0.223403
-0.217765
-0.212232
-0.206802
-0.201472
-0.196243
-0.191112
-0.186079
-0.181141
-0.176298
-0.171548
-0.16689
-0.162322
-0.157844
-0.153454
-0.149151
-0.144934
-0.140801
-0.136751
-0.132783
-0.128897
-0.125089
-0.121361
-0.11771
-0.114135
-0.110635
-0.107209
-0.103857
-0.100576
-0.0973662
-0.0942261
-0.0911547
-0.0881511
-0.0852142
-0.0823429
-0.0795364
-0.0767935
-0.0741134
-0.0714951
-0.0689375
-0.0664398
-0.0640011
-0.0616203
-0.0592966
-0.0570291
-0.0548169
-0.0526591
-0.0505548
-0.0485031
-0.0465033
-0.0445544
-0.0426556
-0.0408061
-0.0390051
-0.0372517
-0.0355452
-0.0338847
-0.0322695
-0.0306988
-0.0291718
-0.0276878
-0.026246
-0.0248457
-0.0234862
-0.0221667
-0.0208865
-0.0196449
-0.0184413
-0.0172749
-0.016145
-0.0150509
-0.0139921
-0.0129678
-0.0119775
-0.0110204
-0.0100959
-0.0092034
-0.0083423
-0.00751198
-0.00671183
-0.00594126
-0.00519969
-0.00448653
-0.00380122
-0.00314318
-0.00251188
-0.00190675
-0.00132725
-0.000772851
-0.000243024
0.000262752
0.00074499
0.0012042
0.00164088
0.00205552
0.00244861
0.00282063
0.00317206
0.00350336
0.003815
0.00410742
0.00438108
0.00463643
0.00487389
0.00509391
0.00529691
0.00548331
0.00565352
0.00580796
0.00594703
0.00607114
0.00618068
0.00627604
0.00635761
0.00642577
0.0064809
0.00652338
0.00655357
0.00657185
0.00657859
0.00657413
0.00655885
0.0065331
0.00649723
0.0064516
0.00639656
0.00633245
0.00625963
0.00617844
0.00608924
0.00599237
0.00588818
0.00577703
0.00565926
0.00553524
0.00540531
0.00526986
0.00512924
0.00498383
0.00483401
0.00468017
0.00452271
0.00436204
0.00419859
0.00403279
0.00386509
0.00369597
0.00352592
0.00335545
0.00318511
0.00301547
0.00284712
0.00268077
0.00251667
0.0023578
0.00219255
0.00208122
0.00174315
0.0031087
-17.6025
-17.4865
-17.1649
-16.7307
-16.2695
-15.7996
-15.3291
-14.8706
-14.4313
-14.013
-13.6158
-13.2396
-12.8835
-12.5463
-12.2268
-11.9235
-11.6353
-11.3611
-11.0997
-10.8501
-10.6115
-10.3831
-10.164
-9.95369
-9.75148
-9.55684
-9.36927
-9.18831
-9.01354
-8.8446
-8.68112
-8.5228
-8.36934
-8.22047
-8.07595
-7.93554
-7.79905
-7.66626
-7.53701
-7.41112
-7.28843
-7.16881
-7.05211
-6.9382
-6.82698
-6.71831
-6.61211
-6.50827
-6.4067
-6.30732
-6.21003
-6.11477
-6.02145
-5.93002
-5.8404
-5.75254
-5.66636
-5.58183
-5.49888
-5.41746
-5.33754
-5.25905
-5.18195
-5.10622
-5.03179
-4.95865
-4.88675
-4.81605
-4.74653
-4.67815
-4.61088
-4.5447
-4.47956
-4.41546
-4.35236
-4.29023
-4.22906
-4.16882
-4.10949
-4.05105
-3.99348
-3.93675
-3.88085
-3.82576
-3.77146
-3.71795
-3.66519
-3.61317
-3.56189
-3.51131
-3.46144
-3.41225
-3.36374
-3.31589
-3.26868
-3.22211
-3.17616
-3.13082
-3.08609
-3.04194
-2.99838
-2.95539
-2.91295
-2.87107
-2.82973
-2.78892
-2.74864
-2.70887
-2.66961
-2.63085
-2.59258
-2.5548
-2.51749
-2.48066
-2.44429
-2.40837
-2.37291
-2.33788
-2.3033
-2.26914
-2.23542
-2.20211
-2.16922
-2.13673
-2.10465
-2.07296
-2.04167
-2.01077
-1.98025
-1.95011
-1.92034
-1.89094
-1.86191
-1.83324
-1.80492
-1.77696
-1.74934
-1.72207
-1.69514
-1.66854
-1.64228
-1.61634
-1.59074
-1.56545
-1.54048
-1.51583
-1.49149
-1.46745
-1.44372
-1.4203
-1.39717
-1.37434
-1.3518
-1.32955
-1.30758
-1.2859
-1.2645
-1.24338
-1.22254
-1.20196
-1.18166
-1.16163
-1.14186
-1.12235
-1.1031
-1.0841
-1.06536
-1.04688
-1.02864
-1.01065
-0.9929
-0.975394
-0.958129
-0.9411
-0.924306
-0.907745
-0.891414
-0.87531
-0.859432
-0.843777
-0.828343
-0.813128
-0.79813
-0.783345
-0.768773
-0.75441
-0.740255
-0.726306
-0.71256
-0.699016
-0.68567
-0.672521
-0.659568
-0.646807
-0.634237
-0.621855
-0.60966
-0.597649
-0.585821
-0.574174
-0.562705
-0.551412
-0.540294
-0.529348
-0.518572
-0.507966
-0.497525
-0.48725
-0.477137
-0.467185
-0.457391
-0.447755
-0.438274
-0.428946
-0.41977
-0.410743
-0.401864
-0.393131
-0.384542
-0.376096
-0.36779
-0.359623
-0.351593
-0.343698
-0.335938
-0.328309
-0.32081
-0.313441
-0.306198
-0.29908
-0.292087
-0.285215
-0.278464
-0.271832
-0.265317
-0.258918
-0.252634
-0.246462
-0.240402
-0.234451
-0.228609
-0.222873
-0.217243
-0.211718
-0.206294
-0.200972
-0.19575
-0.190626
-0.185599
-0.180669
-0.175832
-0.171089
-0.166437
-0.161876
-0.157405
-0.153021
-0.148725
-0.144513
-0.140387
-0.136343
-0.132381
-0.1285
-0.124699
-0.120976
-0.117331
-0.113762
-0.110268
-0.106848
-0.1035
-0.100225
-0.0970207
-0.093886
-0.0908199
-0.0878215
-0.0848897
-0.0820236
-0.0792221
-0.0764843
-0.0738091
-0.0711957
-0.068643
-0.0661501
-0.0637161
-0.06134
-0.0590209
-0.056758
-0.0545503
-0.052397
-0.0502971
-0.0482499
-0.0462544
-0.0443098
-0.0424152
-0.0405699
-0.038773
-0.0370237
-0.0353212
-0.0336647
-0.0320535
-0.0304867
-0.0289636
-0.0274834
-0.0260454
-0.0246488
-0.023293
-0.0219771
-0.0207005
-0.0194625
-0.0182623
-0.0170994
-0.0159729
-0.0148822
-0.0138268
-0.0128058
-0.0118187
-0.0108648
-0.00994344
-0.00905409
-0.00819608
-0.0073688
-0.00657167
-0.00580407
-0.00506543
-0.00435516
-0.0036727
-0.00301749
-0.00238896
-0.00178657
-0.00120977
-0.000658045
-0.00013085
0.00037233
0.000852007
0.00130869
0.00174288
0.00215506
0.00254573
0.00291536
0.00326443
0.0035934
0.00390274
0.00419289
0.00446432
0.00471746
0.00495275
0.00517062
0.00537149
0.0055558
0.00572394
0.00587634
0.0060134
0.00613551
0.00624308
0.00633649
0.00641613
0.00648238
0.00653563
0.00657624
0.00660458
0.00662103
0.00662594
0.00661968
0.00660261
0.00657507
0.00653743
0.00649003
0.00643322
0.00636736
0.00629278
0.00620984
0.00611887
0.00602024
0.00591428
0.00580133
0.00568176
0.00555592
0.00542415
0.00528682
0.00514429
0.00499693
0.00484511
0.00468923
0.00452966
0.00436681
0.00420109
0.00403294
0.00386277
0.00369107
0.00351829
0.00334493
0.00317152
0.0029986
0.00282672
0.00265656
0.00248834
0.0023249
0.00215507
0.002037
0.0016995
0.00300971
-16.7127
-16.6356
-16.4105
-16.0841
-15.7166
-15.3289
-14.9305
-14.5324
-14.1426
-13.7652
-13.4019
-13.0538
-12.721
-12.4034
-12.1002
-11.8108
-11.5345
-11.2704
-11.0177
-10.7757
-10.5437
-10.321
-10.107
-9.90111
-9.70287
-9.51177
-9.32737
-9.14926
-8.97706
-8.81043
-8.64906
-8.49266
-8.34094
-8.19367
-8.05062
-7.91156
-7.77631
-7.64467
-7.51648
-7.39157
-7.2698
-7.15102
-7.03511
-6.92195
-6.81141
-6.70339
-6.5978
-6.49453
-6.3935
-6.29461
-6.1978
-6.10298
-6.01009
-5.91906
-5.82982
-5.74231
-5.65648
-5.57227
-5.48962
-5.4085
-5.32884
-5.25062
-5.17378
-5.09828
-5.02409
-4.95116
-4.87947
-4.80897
-4.73964
-4.67144
-4.60435
-4.53833
-4.47336
-4.40941
-4.34646
-4.28448
-4.22344
-4.16333
-4.10413
-4.04581
-3.98835
-3.93174
-3.87595
-3.82097
-3.76677
-3.71335
-3.66069
-3.60876
-3.55756
-3.50708
-3.45729
-3.40818
-3.35975
-3.31197
-3.26483
-3.21833
-3.17245
-3.12718
-3.08251
-3.03843
-2.99492
-2.95199
-2.90961
-2.86778
-2.8265
-2.78574
-2.74551
-2.70579
-2.66658
-2.62786
-2.58964
-2.5519
-2.51464
-2.47784
-2.44151
-2.40563
-2.37021
-2.33522
-2.30067
-2.26656
-2.23286
-2.19959
-2.16673
-2.13427
-2.10222
-2.07057
-2.03931
-2.00844
-1.97794
-1.94783
-1.91809
-1.88872
-1.85971
-1.83107
-1.80277
-1.77483
-1.74724
-1.71999
-1.69308
-1.66651
-1.64027
-1.61436
-1.58877
-1.56351
-1.53856
-1.51392
-1.4896
-1.46559
-1.44188
-1.41847
-1.39536
-1.37255
-1.35003
-1.32779
-1.30585
-1.28419
-1.2628
-1.2417
-1.22087
-1.20032
-1.18003
-1.16001
-1.14025
-1.12076
-1.10153
-1.08255
-1.06383
-1.04535
-1.02713
-1.00915
-0.991422
-0.973931
-0.95668
-0.939666
-0.922887
-0.906339
-0.890022
-0.873933
-0.858069
-0.842428
-0.827008
-0.811806
-0.796821
-0.78205
-0.767491
-0.753142
-0.739001
-0.725065
-0.711332
-0.697801
-0.684468
-0.671332
-0.658392
-0.645644
-0.633086
-0.620717
-0.608535
-0.596537
-0.584721
-0.573086
-0.561629
-0.550349
-0.539243
-0.528309
-0.517546
-0.506951
-0.496523
-0.486259
-0.476158
-0.466217
-0.456436
-0.446811
-0.437342
-0.428025
-0.41886
-0.409845
-0.400977
-0.392255
-0.383677
-0.375241
-0.366946
-0.35879
-0.350771
-0.342887
-0.335137
-0.327518
-0.32003
-0.312671
-0.305438
-0.29833
-0.291347
-0.284485
-0.277744
-0.271121
-0.264616
-0.258227
-0.251952
-0.245789
-0.239738
-0.233796
-0.227963
-0.222237
-0.216616
-0.211098
-0.205684
-0.20037
-0.195156
-0.190041
-0.185023
-0.1801
-0.175272
-0.170536
-0.165893
-0.16134
-0.156876
-0.1525
-0.148211
-0.144007
-0.139888
-0.135851
-0.131897
-0.128023
-0.124229
-0.120513
-0.116875
-0.113313
-0.109825
-0.106412
-0.103072
-0.0998029
-0.096605
-0.0934767
-0.090417
-0.0874249
-0.0844993
-0.0816394
-0.078844
-0.0761122
-0.073443
-0.0708354
-0.0682885
-0.0658014
-0.0633731
-0.0610026
-0.0586891
-0.0564317
-0.0542295
-0.0520816
-0.049987
-0.047945
-0.0459547
-0.0440153
-0.0421258
-0.0402855
-0.0384936
-0.0367492
-0.0350516
-0.0333999
-0.0317934
-0.0302313
-0.0287129
-0.0272373
-0.0258038
-0.0244117
-0.0230603
-0.0217488
-0.0204765
-0.0192428
-0.0180469
-0.016888
-0.0157657
-0.0146791
-0.0136276
-0.0126106
-0.0116274
-0.0106774
-0.00975987
-0.00887428
-0.00801999
-0.00719638
-0.00640286
-0.00563884
-0.00490372
-0.00419694
-0.00351791
-0.00286608
-0.0022409
-0.0016418
-0.00106826
-0.000519742
4.28666e-06
0.000504343
0.00098094
0.00143458
0.00186577
0.002275
0.00266275
0.0030295
0.00337573
0.00370191
0.00400848
0.00429592
0.00456465
0.00481514
0.00504781
0.00526309
0.00546142
0.0056432
0.00580886
0.00595881
0.00609344
0.00621315
0.00631835
0.00640942
0.00648674
0.00655071
0.00660168
0.00664005
0.00666617
0.00668041
0.00668314
0.00667471
0.00665547
0.0066258
0.00658602
0.0065365
0.00647758
0.00640961
0.00633292
0.00624787
0.0061548
0.00605404
0.00594595
0.00583087
0.00570914
0.00558111
0.00544713
0.00530756
0.00516275
0.00501306
0.00485886
0.00470053
0.00453844
0.00437299
0.00420458
0.00403362
0.00386053
0.00368576
0.00350975
0.00333298
0.00315595
0.00297916
0.00280315
0.00262854
0.00245555
0.00228687
0.00211175
0.00198611
0.00164913
0.00289568
-15.9578
-15.9021
-15.7365
-15.486
-15.1909
-14.8698
-14.5319
-14.1869
-13.8427
-13.504
-13.1736
-12.8533
-12.5441
-12.2465
-11.9604
-11.6857
-11.422
-11.1687
-10.9255
-10.6917
-10.4669
-10.2506
-10.0422
-9.84131
-9.64751
-9.46038
-9.27953
-9.10463
-8.93532
-8.77132
-8.61233
-8.4581
-8.30837
-8.16291
-8.02153
-7.884
-7.75016
-7.61983
-7.49285
-7.36907
-7.24834
-7.13053
-7.01553
-6.90321
-6.79346
-6.68619
-6.58129
-6.47867
-6.37825
-6.27994
-6.18367
-6.08937
-5.99696
-5.90639
-5.81758
-5.73048
-5.64504
-5.5612
-5.47891
-5.39812
-5.31878
-5.24086
-5.16431
-5.08909
-5.01516
-4.94248
-4.87103
-4.80076
-4.73165
-4.66366
-4.59677
-4.53095
-4.46616
-4.40239
-4.33961
-4.27779
-4.21692
-4.15696
-4.09791
-4.03973
-3.9824
-3.92592
-3.87026
-3.8154
-3.76132
-3.70801
-3.65546
-3.60364
-3.55254
-3.50216
-3.45246
-3.40345
-3.3551
-3.30741
-3.26036
-3.21394
-3.16814
-3.12294
-3.07834
-3.03433
-2.9909
-2.94803
-2.90572
-2.86396
-2.82273
-2.78203
-2.74186
-2.7022
-2.66304
-2.62438
-2.58621
-2.54852
-2.51131
-2.47456
-2.43828
-2.40244
-2.36706
-2.33212
-2.29761
-2.26354
-2.22988
-2.19665
-2.16383
-2.13141
-2.0994
-2.06778
-2.03655
-2.00571
-1.97525
-1.94517
-1.91547
-1.88612
-1.85715
-1.82853
-1.80027
-1.77236
-1.74479
-1.71757
-1.69069
-1.66414
-1.63793
-1.61204
-1.58648
-1.56124
-1.53631
-1.5117
-1.4874
-1.46341
-1.43973
-1.41634
-1.39325
-1.37046
-1.34796
-1.32575
-1.30382
-1.28218
-1.26082
-1.23974
-1.21893
-1.19839
-1.17812
-1.15812
-1.13838
-1.11891
-1.09969
-1.08073
-1.06203
-1.04357
-1.02537
-1.00741
-0.989694
-0.972221
-0.954987
-0.93799
-0.921227
-0.904696