/*--------------------------------*- C++ -*----------------------------------*\
| =========                 |                                                 |
| \\      /  F ield         | OpenFOAM: The Open Source CFD Toolbox           |
|  \\    /   O peration     | Version:  2506                                  |
|   \\  /    A nd           | Website:  www.openfoam.com                      |
|    \\/     M anipulation  |                                                 |
\*---------------------------------------------------------------------------*/
FoamFile
{
    version     2.0;
    format      ascii;
    arch        "LSB;label=32;scalar=64";
    class       surfaceScalarField;
    location    "800";
    object      phi;
}
// * * * * * * * * * * * * * * * * * * * * * * * * * * * * * * * * * * * * * //

dimensions      [0 3 -1 0 0 0 0];

oriented        oriented;

internalField   nonuniform List<scalar> 
266147
(
0.00237347
0.000117012
0.0023151
5.83705e-05
0.00227865
3.64522e-05
0.00225492
2.37331e-05
0.0022381
1.6815e-05
0.00222486
1.32436e-05
0.00221383
1.10297e-05
0.00220438
9.4487e-06
0.0021961
8.28096e-06
0.00218871
7.38672e-06
0.00218204
6.67226e-06
0.00217596
6.08589e-06
0.00217036
5.59604e-06
0.00216518
5.18032e-06
0.00216036
4.82269e-06
0.00215584
4.51158e-06
0.00215161
4.23835e-06
0.00214761
3.99638e-06
0.00214383
3.78052e-06
0.00214024
3.58669e-06
0.00213683
3.41162e-06
0.00213358
3.25266e-06
0.00213047
3.10765e-06
0.0021275
2.97479e-06
0.00212464
2.85257e-06
0.0021219
2.73975e-06
0.00211927
2.63524e-06
0.00211673
2.53814e-06
0.00211428
2.44766e-06
0.00211192
2.36313e-06
0.00210964
2.28396e-06
0.00210743
2.20964e-06
0.00210529
2.13971e-06
0.00210321
2.0738e-06
0.0021012
2.01154e-06
0.00209925
1.95264e-06
0.00209735
1.8968e-06
0.00209551
1.8438e-06
0.00209371
1.7934e-06
0.00209197
1.74542e-06
0.00209027
1.69967e-06
0.00208861
1.65599e-06
0.002087
1.61423e-06
0.00208542
1.57428e-06
0.00208389
1.53599e-06
0.00208239
1.49927e-06
0.00208093
1.46401e-06
0.0020795
1.43013e-06
0.0020781
1.39753e-06
0.00207673
1.36614e-06
0.0020754
1.3359e-06
0.00207409
1.30672e-06
0.00207281
1.27856e-06
0.00207156
1.25135e-06
0.00207033
1.22504e-06
0.00206913
1.1996e-06
0.00206796
1.17496e-06
0.00206681
1.15109e-06
0.00206568
1.12794e-06
0.00206458
1.10549e-06
0.00206349
1.0837e-06
0.00206243
1.06254e-06
0.00206139
1.04197e-06
0.00206036
1.02198e-06
0.00205936
1.00252e-06
0.00205838
9.83583e-07
0.00205741
9.65141e-07
0.00205647
9.47171e-07
0.00205554
9.29654e-07
0.00205462
9.1257e-07
0.00205373
8.959e-07
0.00205285
8.79628e-07
0.00205199
8.63738e-07
0.00205114
8.48212e-07
0.0020503
8.33038e-07
0.00204949
8.182e-07
0.00204868
8.03687e-07
0.00204789
7.89484e-07
0.00204712
7.75581e-07
0.00204635
7.61966e-07
0.00204561
7.48629e-07
0.00204487
7.35558e-07
0.00204415
7.22745e-07
0.00204344
7.1018e-07
0.00204274
6.97855e-07
0.00204205
6.8576e-07
0.00204138
6.73888e-07
0.00204072
6.62231e-07
0.00204007
6.50781e-07
0.00203943
6.39532e-07
0.0020388
6.28477e-07
0.00203818
6.1761e-07
0.00203757
6.06924e-07
0.00203698
5.96413e-07
0.00203639
5.86072e-07
0.00203582
5.75895e-07
0.00203525
5.65877e-07
0.00203469
5.56013e-07
0.00203415
5.46298e-07
0.00203361
5.36728e-07
0.00203308
5.27298e-07
0.00203257
5.18005e-07
0.00203206
5.08843e-07
0.00203156
4.99809e-07
0.00203107
4.90899e-07
0.00203058
4.8211e-07
0.00203011
4.73438e-07
0.00202965
4.64879e-07
0.00202919
4.56431e-07
0.00202874
4.48091e-07
0.0020283
4.39854e-07
0.00202787
4.3172e-07
0.00202745
4.23683e-07
0.00202703
4.15743e-07
0.00202662
4.07897e-07
0.00202622
4.00141e-07
0.00202583
3.92473e-07
0.00202545
3.84892e-07
0.00202507
3.77395e-07
0.0020247
3.6998e-07
0.00202434
3.62645e-07
0.00202398
3.55388e-07
0.00202363
3.48206e-07
0.00202329
3.41099e-07
0.00202296
3.34064e-07
0.00202263
3.27099e-07
0.00202231
3.20204e-07
0.002022
3.13376e-07
0.00202169
3.06614e-07
0.00202139
2.99917e-07
0.0020211
2.93283e-07
0.00202081
2.86711e-07
0.00202053
2.80199e-07
0.00202026
2.73746e-07
0.00201999
2.67352e-07
0.00201973
2.61015e-07
0.00201947
2.54734e-07
0.00201922
2.48507e-07
0.00201898
2.42335e-07
0.00201875
2.36216e-07
0.00201851
2.30149e-07
0.00201829
2.24133e-07
0.00201807
2.18168e-07
0.00201786
2.12253e-07
0.00201765
2.06387e-07
0.00201745
2.00569e-07
0.00201726
1.94799e-07
0.00201707
1.89076e-07
0.00201689
1.834e-07
0.00201671
1.7777e-07
0.00201654
1.72185e-07
0.00201637
1.66646e-07
0.00201621
1.61151e-07
0.00201605
1.55701e-07
0.0020159
1.50294e-07
0.00201576
1.44931e-07
0.00201562
1.39611e-07
0.00201548
1.34335e-07
0.00201535
1.291e-07
0.00201523
1.23909e-07
0.00201511
1.18759e-07
0.002015
1.13652e-07
0.00201489
1.08586e-07
0.00201479
1.03562e-07
0.00201469
9.858e-08
0.00201459
9.36391e-08
0.0020145
8.87395e-08
0.00201442
8.38812e-08
0.00201434
7.90642e-08
0.00201427
7.42882e-08
0.0020142
6.95534e-08
0.00201413
6.48597e-08
0.00201407
6.02071e-08
0.00201402
5.55955e-08
0.00201397
5.1025e-08
0.00201392
4.64956e-08
0.00201388
4.20073e-08
0.00201384
3.75602e-08
0.00201381
3.31543e-08
0.00201378
2.87896e-08
0.00201375
2.44662e-08
0.00201373
2.01841e-08
0.00201372
1.59434e-08
0.00201371
1.17441e-08
0.0020137
7.58636e-09
0.0020137
3.47014e-09
0.0020137
-6.04472e-10
0.0020137
-4.63743e-09
0.00201371
-8.62867e-09
0.00201372
-1.25781e-08
0.00201374
-1.64858e-08
0.00201376
-2.03516e-08
0.00201378
-2.41756e-08
0.00201381
-2.79576e-08
0.00201384
-3.16976e-08
0.00201388
-3.53957e-08
0.00201392
-3.90518e-08
0.00201396
-4.26659e-08
0.00201401
-4.6238e-08
0.00201406
-4.97682e-08
0.00201411
-5.32564e-08
0.00201417
-5.67026e-08
0.00201423
-6.01069e-08
0.00201429
-6.34694e-08
0.00201436
-6.67901e-08
0.00201443
-7.0069e-08
0.0020145
-7.33062e-08
0.00201458
-7.65019e-08
0.00201466
-7.96561e-08
0.00201474
-8.27688e-08
0.00201482
-8.58403e-08
0.00201491
-8.88706e-08
0.002015
-9.18599e-08
0.0020151
-9.48084e-08
0.0020152
-9.7716e-08
0.0020153
-1.00583e-07
0.0020154
-1.0341e-07
0.00201551
-1.06196e-07
0.00201562
-1.08943e-07
0.00201573
-1.11649e-07
0.00201584
-1.14316e-07
0.00201596
-1.16944e-07
0.00201608
-1.19532e-07
0.0020162
-1.22082e-07
0.00201633
-1.24593e-07
0.00201645
-1.27065e-07
0.00201658
-1.29499e-07
0.00201671
-1.31895e-07
0.00201685
-1.34253e-07
0.00201698
-1.36574e-07
0.00201712
-1.38858e-07
0.00201726
-1.41105e-07
0.00201741
-1.43316e-07
0.00201755
-1.4549e-07
0.0020177
-1.47628e-07
0.00201785
-1.4973e-07
0.002018
-1.51798e-07
0.00201816
-1.5383e-07
0.00201831
-1.55827e-07
0.00201847
-1.5779e-07
0.00201863
-1.59718e-07
0.00201879
-1.61613e-07
0.00201895
-1.63475e-07
0.00201912
-1.65303e-07
0.00201929
-1.67098e-07
0.00201946
-1.68861e-07
0.00201963
-1.70591e-07
0.0020198
-1.7229e-07
0.00201997
-1.73957e-07
0.00202015
-1.75593e-07
0.00202033
-1.77198e-07
0.0020205
-1.78772e-07
0.00202068
-1.80316e-07
0.00202087
-1.8183e-07
0.00202105
-1.83314e-07
0.00202123
-1.84768e-07
0.00202142
-1.86194e-07
0.00202161
-1.87591e-07
0.0020218
-1.88959e-07
0.00202199
-1.90299e-07
0.00202218
-1.91612e-07
0.00202237
-1.92896e-07
0.00202257
-1.94154e-07
0.00202276
-1.95384e-07
0.00202296
-1.96588e-07
0.00202316
-1.97765e-07
0.00202336
-1.98916e-07
0.00202356
-2.00042e-07
0.00202376
-2.01141e-07
0.00202396
-2.02216e-07
0.00202416
-2.03265e-07
0.00202437
-2.0429e-07
0.00202457
-2.0529e-07
0.00202478
-2.06266e-07
0.00202498
-2.07217e-07
0.00202519
-2.08146e-07
0.0020254
-2.0905e-07
0.00202561
-2.09932e-07
0.00202582
-2.10791e-07
0.00202603
-2.11626e-07
0.00202625
-2.1244e-07
0.00202646
-2.13231e-07
0.00202667
-2.14e-07
0.00202689
-2.14748e-07
0.0020271
-2.15474e-07
0.00202732
-2.16179e-07
0.00202754
-2.16863e-07
0.00202775
-2.17526e-07
0.00202797
-2.18169e-07
0.00202819
-2.18791e-07
0.00202841
-2.19393e-07
0.00202863
-2.19976e-07
0.00202885
-2.20539e-07
0.00202907
-2.21082e-07
0.00202929
-2.21606e-07
0.00202952
-2.22112e-07
0.00202974
-2.22598e-07
0.00202996
-2.23066e-07
0.00203019
-2.23516e-07
0.00203041
-2.23948e-07
0.00203063
-2.24362e-07
0.00203086
-2.24758e-07
0.00203108
-2.25137e-07
0.00203131
-2.25498e-07
0.00203154
-2.25843e-07
0.00203176
-2.26171e-07
0.00203199
-2.26482e-07
0.00203221
-2.26777e-07
0.00203244
-2.27056e-07
0.00203267
-2.27319e-07
0.0020329
-2.27566e-07
0.00203312
-2.27798e-07
0.00203335
-2.28014e-07
0.00203358
-2.28215e-07
0.00203381
-2.28401e-07
0.00203404
-2.28573e-07
0.00203427
-2.28729e-07
0.0020345
-2.28872e-07
0.00203472
-2.29001e-07
0.00203495
-2.29115e-07
0.00203518
-2.29216e-07
0.00203541
-2.29303e-07
0.00203564
-2.29377e-07
0.00203587
-2.29438e-07
0.0020361
-2.29485e-07
0.00203633
-2.2952e-07
0.00203656
-2.29542e-07
0.00203679
-2.29552e-07
0.00203702
-2.2955e-07
0.00203725
-2.29535e-07
0.00203748
-2.29509e-07
0.00203771
-2.29471e-07
0.00203794
-2.29421e-07
0.00203817
-2.2936e-07
0.00203839
-2.29288e-07
0.00203862
-2.29205e-07
0.00203885
-2.29111e-07
0.00203908
-2.29006e-07
0.00203931
-2.28891e-07
0.00203954
-2.28765e-07
0.00203977
-2.28629e-07
0.00204
-2.28483e-07
0.00204023
-2.28327e-07
0.00204045
-2.28161e-07
0.00204068
-2.27985e-07
0.00204091
-2.278e-07
0.00204114
-2.27606e-07
0.00204136
-2.27402e-07
0.00204159
-2.2719e-07
0.00204182
-2.26968e-07
0.00204205
-2.26737e-07
0.00204227
-2.26498e-07
0.0020425
-2.2625e-07
0.00204272
-2.25993e-07
0.00204295
-2.25728e-07
0.00204317
-2.25455e-07
0.0020434
-2.25173e-07
0.00204363
-2.24884e-07
0.00204385
-2.24586e-07
0.00204407
-2.2428e-07
0.0020443
-2.23966e-07
0.00204452
-2.23644e-07
0.00204474
-2.23314e-07
0.00204497
-2.22977e-07
0.00204519
-2.22632e-07
0.00204541
-2.22278e-07
0.00204563
-2.21918e-07
0.00204586
-2.21549e-07
0.00204608
-2.21173e-07
0.0020463
-2.20789e-07
0.00204652
-2.20396e-07
0.00204674
-2.19997e-07
0.00204696
-2.19589e-07
0.00204718
-2.19173e-07
0.0020474
-2.18748e-07
0.00204761
-2.18316e-07
0.00204783
-2.17875e-07
0.00204805
-2.17425e-07
0.00204827
-2.16966e-07
0.00204848
-2.16498e-07
0.0020487
-2.16021e-07
0.00204891
-2.15533e-07
0.00204913
-2.15036e-07
0.00204934
-2.14528e-07
0.00204956
-2.14008e-07
0.00204977
-2.13477e-07
0.00204998
-2.12933e-07
0.0020502
-2.12375e-07
0.00205041
-2.11804e-07
0.00205062
-2.11217e-07
0.00205083
-2.10614e-07
0.00205104
-2.09992e-07
0.00205125
-2.09351e-07
0.00205146
-2.08688e-07
0.00205167
-2.08003e-07
0.00205187
-2.07276e-07
0.00205208
-2.06578e-07
0.00205229
-2.05566e-07
0.00205249
-2.05828e-07
-2.00097e-07
0.00243699
0.000170511
0.00238645
0.000108911
0.00234549
7.74065e-05
0.00231243
5.67991e-05
0.00228645
4.27952e-05
0.00226591
3.37841e-05
0.00224923
2.77074e-05
0.00223535
2.33224e-05
0.00222357
2.00657e-05
0.00221337
1.75903e-05
0.00220439
1.56514e-05
0.00219638
1.40926e-05
0.00218916
1.28142e-05
0.00218259
1.1748e-05
0.00217657
1.08452e-05
0.00217101
1.00709e-05
0.00216585
9.39938e-06
0.00216104
8.81146e-06
0.00215653
8.29232e-06
0.00215228
7.83047e-06
0.00214828
7.41684e-06
0.00214448
7.04417e-06
0.00214089
6.7066e-06
0.00213746
6.39931e-06
0.0021342
6.11835e-06
0.00213107
5.86042e-06
0.00212809
5.62274e-06
0.00212522
5.40297e-06
0.00212247
5.19911e-06
0.00211982
5.00946e-06
0.00211728
4.83254e-06
0.00211482
4.66707e-06
0.00211245
4.51195e-06
0.00211015
4.3662e-06
0.00210794
4.22898e-06
0.00210579
4.09952e-06
0.00210371
3.97716e-06
0.00210169
3.86131e-06
0.00209973
3.75144e-06
0.00209783
3.64709e-06
0.00209598
3.54782e-06
0.00209419
3.45325e-06
0.00209244
3.36305e-06
0.00209074
3.27689e-06
0.00208908
3.1945e-06
0.00208746
3.11563e-06
0.00208588
3.04003e-06
0.00208435
2.9675e-06
0.00208285
2.89784e-06
0.00208138
2.83087e-06
0.00207995
2.76643e-06
0.00207855
2.70436e-06
0.00207719
2.64453e-06
0.00207585
2.58681e-06
0.00207455
2.53108e-06
0.00207327
2.47723e-06
0.00207202
2.42516e-06
0.00207079
2.37476e-06
0.0020696
2.32597e-06
0.00206842
2.27868e-06
0.00206727
2.23283e-06
0.00206615
2.18835e-06
0.00206505
2.14516e-06
0.00206396
2.10321e-06
0.0020629
2.06244e-06
0.00206186
2.02279e-06
0.00206085
1.98421e-06
0.00205985
1.94664e-06
0.00205887
1.91006e-06
0.0020579
1.87441e-06
0.00205696
1.83965e-06
0.00205603
1.80575e-06
0.00205513
1.77267e-06
0.00205423
1.74037e-06
0.00205336
1.70882e-06
0.0020525
1.67799e-06
0.00205165
1.64786e-06
0.00205082
1.61839e-06
0.00205001
1.58957e-06
0.00204921
1.56136e-06
0.00204843
1.53374e-06
0.00204765
1.50668e-06
0.0020469
1.48018e-06
0.00204615
1.45421e-06
0.00204542
1.42874e-06
0.0020447
1.40377e-06
0.002044
1.37926e-06
0.00204331
1.35522e-06
0.00204263
1.33161e-06
0.00204196
1.30843e-06
0.0020413
1.28566e-06
0.00204065
1.26328e-06
0.00204002
1.24129e-06
0.0020394
1.21967e-06
0.00203878
1.19841e-06
0.00203818
1.1775e-06
0.00203759
1.15692e-06
0.00203701
1.13667e-06
0.00203644
1.11673e-06
0.00203588
1.09709e-06
0.00203533
1.07776e-06
0.00203479
1.0587e-06
0.00203426
1.03993e-06
0.00203374
1.02142e-06
0.00203322
1.00318e-06
0.00203272
9.85186e-07
0.00203223
9.6744e-07
0.00203174
9.49933e-07
0.00203127
9.32658e-07
0.0020308
9.15607e-07
0.00203034
8.98776e-07
0.00202989
8.82158e-07
0.00202945
8.65746e-07
0.00202901
8.49535e-07
0.00202859
8.3352e-07
0.00202817
8.17695e-07
0.00202776
8.02055e-07
0.00202736
7.86595e-07
0.00202696
7.71312e-07
0.00202658
7.56199e-07
0.0020262
7.41253e-07
0.00202583
7.2647e-07
0.00202546
7.11845e-07
0.00202511
6.97374e-07
0.00202476
6.83055e-07
0.00202442
6.68883e-07
0.00202408
6.54855e-07
0.00202376
6.40968e-07
0.00202343
6.27218e-07
0.00202312
6.13602e-07
0.00202281
6.00118e-07
0.00202251
5.86762e-07
0.00202222
5.73532e-07
0.00202193
5.60426e-07
0.00202165
5.4744e-07
0.00202138
5.34573e-07
0.00202111
5.21822e-07
0.00202085
5.09186e-07
0.0020206
4.96661e-07
0.00202035
4.84246e-07
0.00202011
4.7194e-07
0.00201987
4.59739e-07
0.00201964
4.47644e-07
0.00201942
4.35652e-07
0.0020192
4.23761e-07
0.00201899
4.1197e-07
0.00201879
4.00278e-07
0.00201859
3.88684e-07
0.00201839
3.77185e-07
0.0020182
3.65782e-07
0.00201802
3.54473e-07
0.00201785
3.43257e-07
0.00201767
3.32133e-07
0.00201751
3.211e-07
0.00201735
3.10158e-07
0.00201719
2.99305e-07
0.00201705
2.88541e-07
0.0020169
2.77865e-07
0.00201676
2.67277e-07
0.00201663
2.56776e-07
0.0020165
2.46362e-07
0.00201638
2.36034e-07
0.00201626
2.25791e-07
0.00201615
2.15635e-07
0.00201604
2.05563e-07
0.00201594
1.95576e-07
0.00201585
1.85674e-07
0.00201575
1.75856e-07
0.00201567
1.66122e-07
0.00201558
1.56473e-07
0.00201551
1.46907e-07
0.00201543
1.37425e-07
0.00201537
1.28027e-07
0.0020153
1.18713e-07
0.00201525
1.09483e-07
0.00201519
1.00336e-07
0.00201514
9.12729e-08
0.0020151
8.22937e-08
0.00201506
7.33983e-08
0.00201502
6.45868e-08
0.00201499
5.58593e-08
0.00201496
4.72158e-08
0.00201494
3.86563e-08
0.00201492
3.01811e-08
0.00201491
2.17901e-08
0.0020149
1.34834e-08
0.00201489
5.26114e-09
0.00201489
-2.8766e-09
0.00201489
-1.09297e-08
0.0020149
-1.88982e-08
0.00201491
-2.6782e-08
0.00201492
-3.45809e-08
0.00201494
-4.2295e-08
0.00201496
-4.99241e-08
0.00201499
-5.74684e-08
0.00201502
-6.49277e-08
0.00201505
-7.2302e-08
0.00201509
-7.95914e-08
0.00201513
-8.67958e-08
0.00201517
-9.39154e-08
0.00201522
-1.0095e-07
0.00201527
-1.079e-07
0.00201533
-1.14765e-07
0.00201539
-1.21546e-07
0.00201545
-1.28242e-07
0.00201551
-1.34854e-07
0.00201558
-1.41382e-07
0.00201565
-1.47825e-07
0.00201573
-1.54185e-07
0.0020158
-1.60461e-07
0.00201588
-1.66655e-07
0.00201597
-1.72764e-07
0.00201605
-1.78792e-07
0.00201614
-1.84736e-07
0.00201624
-1.90599e-07
0.00201633
-1.9638e-07
0.00201643
-2.02079e-07
0.00201653
-2.07697e-07
0.00201664
-2.13234e-07
0.00201674
-2.18691e-07
0.00201685
-2.24069e-07
0.00201697
-2.29366e-07
0.00201708
-2.34585e-07
0.0020172
-2.39725e-07
0.00201732
-2.44788e-07
0.00201744
-2.49772e-07
0.00201757
-2.5468e-07
0.0020177
-2.59511e-07
0.00201783
-2.64267e-07
0.00201796
-2.68947e-07
0.00201809
-2.73552e-07
0.00201823
-2.78083e-07
0.00201837
-2.8254e-07
0.00201851
-2.86925e-07
0.00201865
-2.91237e-07
0.0020188
-2.95477e-07
0.00201895
-2.99645e-07
0.0020191
-3.03744e-07
0.00201925
-3.07772e-07
0.0020194
-3.11731e-07
0.00201956
-3.15621e-07
0.00201972
-3.19443e-07
0.00201988
-3.23198e-07
0.00202004
-3.26886e-07
0.0020202
-3.30507e-07
0.00202037
-3.34064e-07
0.00202053
-3.37555e-07
0.0020207
-3.40982e-07
0.00202087
-3.44346e-07
0.00202104
-3.47647e-07
0.00202122
-3.50885e-07
0.00202139
-3.54062e-07
0.00202157
-3.57178e-07
0.00202175
-3.60233e-07
0.00202193
-3.63229e-07
0.00202211
-3.66165e-07
0.00202229
-3.69043e-07
0.00202248
-3.71863e-07
0.00202266
-3.74626e-07
0.00202285
-3.77332e-07
0.00202304
-3.79982e-07
0.00202323
-3.82577e-07
0.00202342
-3.85116e-07
0.00202361
-3.87602e-07
0.00202381
-3.90034e-07
0.002024
-3.92412e-07
0.0020242
-3.94738e-07
0.00202439
-3.97012e-07
0.00202459
-3.99235e-07
0.00202479
-4.01406e-07
0.00202499
-4.03528e-07
0.00202519
-4.05599e-07
0.00202539
-4.07622e-07
0.0020256
-4.09595e-07
0.0020258
-4.11521e-07
0.00202601
-4.13399e-07
0.00202621
-4.15229e-07
0.00202642
-4.17013e-07
0.00202663
-4.18751e-07
0.00202684
-4.20443e-07
0.00202705
-4.22091e-07
0.00202726
-4.23693e-07
0.00202747
-4.25251e-07
0.00202768
-4.26766e-07
0.00202789
-4.28238e-07
0.00202811
-4.29667e-07
0.00202832
-4.31054e-07
0.00202854
-4.32399e-07
0.00202875
-4.33702e-07
0.00202897
-4.34965e-07
0.00202918
-4.36188e-07
0.0020294
-4.37371e-07
0.00202962
-4.38514e-07
0.00202984
-4.39618e-07
0.00203006
-4.40684e-07
0.00203028
-4.41712e-07
0.0020305
-4.42702e-07
0.00203072
-4.43655e-07
0.00203094
-4.44572e-07
0.00203116
-4.45452e-07
0.00203138
-4.46296e-07
0.0020316
-4.47104e-07
0.00203183
-4.47878e-07
0.00203205
-4.48617e-07
0.00203227
-4.49322e-07
0.0020325
-4.49993e-07
0.00203272
-4.50631e-07
0.00203295
-4.51236e-07
0.00203317
-4.51809e-07
0.0020334
-4.5235e-07
0.00203362
-4.52859e-07
0.00203385
-4.53336e-07
0.00203407
-4.53783e-07
0.0020343
-4.542e-07
0.00203452
-4.54586e-07
0.00203475
-4.54943e-07
0.00203498
-4.55271e-07
0.0020352
-4.5557e-07
0.00203543
-4.5584e-07
0.00203566
-4.56083e-07
0.00203588
-4.56298e-07
0.00203611
-4.56486e-07
0.00203634
-4.56646e-07
0.00203657
-4.56781e-07
0.00203679
-4.56889e-07
0.00203702
-4.56972e-07
0.00203725
-4.57029e-07
0.00203748
-4.57061e-07
0.0020377
-4.57069e-07
0.00203793
-4.57052e-07
0.00203816
-4.57011e-07
0.00203839
-4.56947e-07
0.00203861
-4.5686e-07
0.00203884
-4.5675e-07
0.00203907
-4.56617e-07
0.0020393
-4.56462e-07
0.00203952
-4.56286e-07
0.00203975
-4.56087e-07
0.00203998
-4.55868e-07
0.0020402
-4.55628e-07
0.00204043
-4.55367e-07
0.00204066
-4.55086e-07
0.00204088
-4.54784e-07
0.00204111
-4.54464e-07
0.00204134
-4.54123e-07
0.00204156
-4.53764e-07
0.00204179
-4.53386e-07
0.00204201
-4.52989e-07
0.00204224
-4.52574e-07
0.00204246
-4.52141e-07
0.00204269
-4.5169e-07
0.00204291
-4.51221e-07
0.00204314
-4.50735e-07
0.00204336
-4.50232e-07
0.00204359
-4.49712e-07
0.00204381
-4.49175e-07
0.00204403
-4.48622e-07
0.00204426
-4.48052e-07
0.00204448
-4.47465e-07
0.0020447
-4.46863e-07
0.00204492
-4.46245e-07
0.00204515
-4.4561e-07
0.00204537
-4.4496e-07
0.00204559
-4.44295e-07
0.00204581
-4.43613e-07
0.00204603
-4.42916e-07
0.00204625
-4.42204e-07
0.00204647
-4.41476e-07
0.00204669
-4.40732e-07
0.00204691
-4.39972e-07
0.00204713
-4.39197e-07
0.00204735
-4.38406e-07
0.00204757
-4.37599e-07
0.00204778
-4.36776e-07
0.002048
-4.35936e-07
0.00204822
-4.35079e-07
0.00204843
-4.34206e-07
0.00204865
-4.33315e-07
0.00204886
-4.32406e-07
0.00204908
-4.31478e-07
0.00204929
-4.30532e-07
0.00204951
-4.29566e-07
0.00204972
-4.28579e-07
0.00204993
-4.27571e-07
0.00205015
-4.26541e-07
0.00205036
-4.25487e-07
0.00205057
-4.24407e-07
0.00205078
-4.23302e-07
0.00205099
-4.22167e-07
0.0020512
-4.21003e-07
0.00205141
-4.19805e-07
0.00205162
-4.18572e-07
0.00205183
-4.173e-07
0.00205203
-4.15984e-07
0.00205224
-4.14622e-07
0.00205245
-4.13197e-07
0.00205265
-4.11732e-07
0.00205286
-4.10061e-07
0.00205306
-4.08651e-07
-4.0473e-07
0.00247084
0.000190158
0.00243653
0.000143226
0.00240244
0.00011149
0.00237102
8.82236e-05
0.00234325
7.05573e-05
0.00231943
5.7604e-05
0.00229907
4.80703e-05
0.00228155
4.08456e-05
0.00226635
3.52651e-05
0.00225305
3.08918e-05
0.0022413
2.74028e-05
0.00223082
2.45691e-05
0.0022214
2.22322e-05
0.00221287
2.02783e-05
0.00220509
1.86241e-05
0.00219796
1.72079e-05
0.00219137
1.59832e-05
0.00218527
1.49146e-05
0.00217959
1.39746e-05
0.00217428
1.31419e-05
0.00216929
1.23993e-05
0.0021646
1.17331e-05
0.00216018
1.11323e-05
0.00215599
1.05877e-05
0.00215202
1.00918e-05
0.00214824
9.63841e-06
0.00214464
9.22228e-06
0.0021412
8.83898e-06
0.00213792
8.48477e-06
0.00213477
8.15643e-06
0.00213175
7.85121e-06
0.00212885
7.56671e-06
0.00212606
7.30087e-06
0.00212338
7.05188e-06
0.00212079
6.81817e-06
0.00211829
6.59833e-06
0.00211588
6.39114e-06
0.00211354
6.19552e-06
0.00211128
6.01049e-06
0.00210909
5.83519e-06
0.00210697
5.66885e-06
0.00210492
5.51077e-06
0.00210292
5.36034e-06
0.00210098
5.21698e-06
0.00209909
5.08019e-06
0.00209726
4.94951e-06
0.00209547
4.82451e-06
0.00209374
4.70483e-06
0.00209204
4.5901e-06
0.00209039
4.48e-06
0.00208879
4.37426e-06
0.00208722
4.27259e-06
0.00208569
4.17475e-06
0.00208419
4.08052e-06
0.00208274
3.98968e-06
0.00208131
3.90205e-06
0.00207992
3.81743e-06
0.00207856
3.73567e-06
0.00207723
3.65662e-06
0.00207593
3.58012e-06
0.00207465
3.50604e-06
0.00207341
3.43427e-06
0.00207219
3.36467e-06
0.00207099
3.29716e-06
0.00206982
3.23162e-06
0.00206868
3.16796e-06
0.00206756
3.10609e-06
0.00206646
3.04593e-06
0.00206538
2.98739e-06
0.00206432
2.93042e-06
0.00206329
2.87493e-06
0.00206227
2.82086e-06
0.00206128
2.76814e-06
0.0020603
2.71673e-06
0.00205934
2.66657e-06
0.00205841
2.6176e-06
0.00205748
2.56978e-06
0.00205658
2.52305e-06
0.00205569
2.47738e-06
0.00205482
2.43273e-06
0.00205396
2.38904e-06
0.00205312
2.3463e-06
0.0020523
2.30445e-06
0.00205149
2.26347e-06
0.0020507
2.22332e-06
0.00204992
2.18398e-06
0.00204915
2.14541e-06
0.0020484
2.10759e-06
0.00204766
2.07049e-06
0.00204693
2.03408e-06
0.00204622
1.99834e-06
0.00204552
1.96325e-06
0.00204483
1.92878e-06
0.00204416
1.89491e-06
0.00204349
1.86163e-06
0.00204284
1.82891e-06
0.0020422
1.79674e-06
0.00204157
1.7651e-06
0.00204096
1.73396e-06
0.00204035
1.70332e-06
0.00203976
1.67316e-06
0.00203917
1.64346e-06
0.0020386
1.61421e-06
0.00203803
1.58539e-06
0.00203748
1.557e-06
0.00203694
1.52901e-06
0.0020364
1.50142e-06
0.00203588
1.47422e-06
0.00203536
1.44739e-06
0.00203486
1.42093e-06
0.00203436
1.39481e-06
0.00203387
1.36904e-06
0.0020334
1.3436e-06
0.00203293
1.31848e-06
0.00203247
1.29368e-06
0.00203202
1.26919e-06
0.00203157
1.24499e-06
0.00203114
1.22108e-06
0.00203071
1.19745e-06
0.00203029
1.17409e-06
0.00202988
1.15101e-06
0.00202948
1.12818e-06
0.00202909
1.10561e-06
0.0020287
1.08328e-06
0.00202832
1.0612e-06
0.00202795
1.03935e-06
0.00202759
1.01773e-06
0.00202724
9.96337e-07
0.00202689
9.75162e-07
0.00202655
9.54201e-07
0.00202621
9.33449e-07
0.00202589
9.12902e-07
0.00202557
8.92556e-07
0.00202526
8.72406e-07
0.00202495
8.52448e-07
0.00202465
8.32679e-07
0.00202436
8.13094e-07
0.00202408
7.9369e-07
0.0020238
7.74464e-07
0.00202353
7.55412e-07
0.00202326
7.36532e-07
0.00202301
7.1782e-07
0.00202276
6.99274e-07
0.00202251
6.80891e-07
0.00202227
6.62668e-07
0.00202204
6.44604e-07
0.00202181
6.26695e-07
0.00202159
6.0894e-07
0.00202138
5.91337e-07
0.00202117
5.73884e-07
0.00202097
5.56578e-07
0.00202077
5.39419e-07
0.00202058
5.22404e-07
0.0020204
5.05532e-07
0.00202022
4.88803e-07
0.00202004
4.72214e-07
0.00201988
4.55764e-07
0.00201972
4.39452e-07
0.00201956
4.23277e-07
0.00201941
4.07239e-07
0.00201926
3.91336e-07
0.00201913
3.75567e-07
0.00201899
3.59932e-07
0.00201886
3.4443e-07
0.00201874
3.29061e-07
0.00201862
3.13824e-07
0.00201851
2.98718e-07
0.0020184
2.83744e-07
0.0020183
2.689e-07
0.0020182
2.54186e-07
0.00201811
2.39603e-07
0.00201802
2.2515e-07
0.00201794
2.10826e-07
0.00201786
1.96632e-07
0.00201778
1.82567e-07
0.00201772
1.68632e-07
0.00201765
1.54826e-07
0.00201759
1.41149e-07
0.00201754
1.27601e-07
0.00201749
1.14183e-07
0.00201745
1.00894e-07
0.0020174
8.77345e-08
0.00201737
7.47042e-08
0.00201734
6.18033e-08
0.00201731
4.90319e-08
0.00201729
3.63901e-08
0.00201727
2.38778e-08
0.00201725
1.14952e-08
0.00201724
-7.57681e-10
0.00201724
-1.28808e-08
0.00201724
-2.4874e-08
0.00201724
-3.67374e-08
0.00201724
-4.84709e-08
0.00201725
-6.00744e-08
0.00201727
-7.15481e-08
0.00201729
-8.28918e-08
0.00201731
-9.41057e-08
0.00201733
-1.0519e-07
0.00201736
-1.16144e-07
0.0020174
-1.26969e-07
0.00201743
-1.37664e-07
0.00201747
-1.4823e-07
0.00201752
-1.58666e-07
0.00201756
-1.68974e-07
0.00201762
-1.79153e-07
0.00201767
-1.89203e-07
0.00201773
-1.99125e-07
0.00201779
-2.08919e-07
0.00201785
-2.18586e-07
0.00201792
-2.28125e-07
0.00201799
-2.37538e-07
0.00201807
-2.46824e-07
0.00201814
-2.55984e-07
0.00201822
-2.65019e-07
0.00201831
-2.73928e-07
0.00201839
-2.82714e-07
0.00201848
-2.91375e-07
0.00201857
-2.99913e-07
0.00201867
-3.08328e-07
0.00201877
-3.16622e-07
0.00201887
-3.24794e-07
0.00201897
-3.32845e-07
0.00201908
-3.40777e-07
0.00201919
-3.48589e-07
0.0020193
-3.56283e-07
0.00201941
-3.63859e-07
0.00201953
-3.71318e-07
0.00201965
-3.78661e-07
0.00201977
-3.85889e-07
0.00201989
-3.93003e-07
0.00202002
-4.00003e-07
0.00202015
-4.06891e-07
0.00202028
-4.13666e-07
0.00202041
-4.20332e-07
0.00202055
-4.26887e-07
0.00202069
-4.33333e-07
0.00202083
-4.39672e-07
0.00202097
-4.45903e-07
0.00202111
-4.52028e-07
0.00202126
-4.58048e-07
0.00202141
-4.63964e-07
0.00202156
-4.69777e-07
0.00202171
-4.75488e-07
0.00202186
-4.81098e-07
0.00202202
-4.86607e-07
0.00202218
-4.92017e-07
0.00202234
-4.97329e-07
0.0020225
-5.02544e-07
0.00202266
-5.07662e-07
0.00202283
-5.12685e-07
0.002023
-5.17614e-07
0.00202316
-5.22449e-07
0.00202333
-5.27192e-07
0.00202351
-5.31843e-07
0.00202368
-5.36404e-07
0.00202385
-5.40876e-07
0.00202403
-5.45259e-07
0.00202421
-5.49554e-07
0.00202439
-5.53763e-07
0.00202457
-5.57886e-07
0.00202475
-5.61924e-07
0.00202493
-5.65878e-07
0.00202512
-5.69749e-07
0.0020253
-5.73538e-07
0.00202549
-5.77245e-07
0.00202568
-5.80872e-07
0.00202587
-5.8442e-07
0.00202606
-5.87889e-07
0.00202625
-5.9128e-07
0.00202644
-5.94594e-07
0.00202664
-5.97832e-07
0.00202683
-6.00995e-07
0.00202703
-6.04083e-07
0.00202723
-6.07097e-07
0.00202743
-6.10039e-07
0.00202763
-6.12908e-07
0.00202783
-6.15707e-07
0.00202803
-6.18434e-07
0.00202823
-6.21092e-07
0.00202843
-6.23681e-07
0.00202864
-6.26202e-07
0.00202884
-6.28655e-07
0.00202905
-6.31041e-07
0.00202925
-6.33362e-07
0.00202946
-6.35617e-07
0.00202967
-6.37808e-07
0.00202988
-6.39935e-07
0.00203009
-6.41999e-07
0.0020303
-6.44e-07
0.00203051
-6.4594e-07
0.00203072
-6.47818e-07
0.00203093
-6.49637e-07
0.00203115
-6.51396e-07
0.00203136
-6.53096e-07
0.00203157
-6.54737e-07
0.00203179
-6.56322e-07
0.002032
-6.57849e-07
0.00203222
-6.5932e-07
0.00203244
-6.60736e-07
0.00203265
-6.62096e-07
0.00203287
-6.63403e-07
0.00203309
-6.64656e-07
0.00203331
-6.65856e-07
0.00203352
-6.67004e-07
0.00203374
-6.681e-07
0.00203396
-6.69145e-07
0.00203418
-6.7014e-07
0.0020344
-6.71085e-07
0.00203462
-6.71981e-07
0.00203484
-6.72829e-07
0.00203506
-6.73629e-07
0.00203528
-6.74382e-07
0.0020355
-6.75088e-07
0.00203573
-6.75748e-07
0.00203595
-6.76363e-07
0.00203617
-6.76933e-07
0.00203639
-6.77459e-07
0.00203661
-6.77941e-07
0.00203684
-6.78381e-07
0.00203706
-6.78778e-07
0.00203728
-6.79133e-07
0.00203751
-6.79448e-07
0.00203773
-6.79721e-07
0.00203795
-6.79955e-07
0.00203817
-6.80149e-07
0.0020384
-6.80304e-07
0.00203862
-6.80421e-07
0.00203885
-6.80501e-07
0.00203907
-6.80543e-07
0.00203929
-6.80548e-07
0.00203952
-6.80517e-07
0.00203974
-6.80451e-07
0.00203996
-6.8035e-07
0.00204019
-6.80214e-07
0.00204041
-6.80044e-07
0.00204063
-6.7984e-07
0.00204086
-6.79604e-07
0.00204108
-6.79335e-07
0.0020413
-6.79034e-07
0.00204153
-6.78701e-07
0.00204175
-6.78337e-07
0.00204197
-6.77943e-07
0.00204219
-6.77518e-07
0.00204242
-6.77064e-07
0.00204264
-6.7658e-07
0.00204286
-6.76067e-07
0.00204308
-6.75526e-07
0.00204331
-6.74957e-07
0.00204353
-6.7436e-07
0.00204375
-6.73736e-07
0.00204397
-6.73084e-07
0.00204419
-6.72406e-07
0.00204441
-6.71702e-07
0.00204463
-6.70972e-07
0.00204485
-6.70216e-07
0.00204507
-6.69435e-07
0.00204529
-6.68629e-07
0.00204551
-6.67798e-07
0.00204573
-6.66942e-07
0.00204595
-6.66062e-07
0.00204617
-6.65158e-07
0.00204639
-6.6423e-07
0.00204661
-6.63278e-07
0.00204683
-6.62302e-07
0.00204704
-6.61303e-07
0.00204726
-6.6028e-07
0.00204748
-6.59233e-07
0.0020477
-6.58163e-07
0.00204791
-6.57069e-07
0.00204813
-6.55952e-07
0.00204834
-6.54811e-07
0.00204856
-6.53646e-07
0.00204877
-6.52457e-07
0.00204899
-6.51243e-07
0.0020492
-6.50005e-07
0.00204942
-6.48741e-07
0.00204963
-6.47452e-07
0.00204984
-6.46137e-07
0.00205005
-6.44794e-07
0.00205027
-6.43424e-07
0.00205048
-6.42025e-07
0.00205069
-6.40597e-07
0.0020509
-6.39138e-07
0.00205111
-6.37647e-07
0.00205132
-6.36122e-07
0.00205153
-6.34562e-07
0.00205174
-6.32964e-07
0.00205194
-6.31327e-07
0.00205215
-6.29647e-07
0.00205236
-6.27922e-07
0.00205256
-6.26148e-07
0.00205277
-6.24322e-07
0.00205298
-6.22437e-07
0.00205318
-6.20489e-07
0.00205338
-6.18471e-07
0.00205359
-6.16369e-07
0.00205379
-6.14185e-07
0.00205399
-6.11817e-07
0.00205419
-6.09473e-07
-6.05219e-07
0.00248171
0.000198932
0.00246142
0.000163519
0.00243772
0.000135196
0.00241325
0.000112692
0.00238933
9.44689e-05
0.00236699
7.99508e-05
0.00234659
6.847e-05
0.00232814
5.9298e-05
0.00231151
5.18954e-05
0.00229652
4.58741e-05
0.002283
4.09289e-05
0.00227074
3.68234e-05
0.0022596
3.33794e-05
0.00224941
3.04621e-05
0.00224007
2.79679e-05
0.00223146
2.58168e-05
0.0022235
2.39466e-05
0.0022161
2.23085e-05
0.00220921
2.08638e-05
0.00220277
1.95817e-05
0.00219673
1.84373e-05
0.00219106
1.74102e-05
0.00218571
1.6484e-05
0.00218065
1.56449e-05
0.00217586
1.48814e-05
0.00217131
1.41841e-05
0.00216699
1.35449e-05
0.00216287
1.29569e-05
0.00215894
1.24144e-05
0.00215519
1.19123e-05
0.00215159
1.14463e-05
0.00214815
1.10127e-05
0.00214484
1.06083e-05
0.00214166
1.02302e-05
0.0021386
9.87588e-06
0.00213566
9.54324e-06
0.00213282
9.23031e-06
0.00213008
8.93538e-06
0.00212743
8.65693e-06
0.00212487
8.3936e-06
0.0021224
8.14418e-06
0.00212
7.90756e-06
0.00211768
7.68277e-06
0.00211543
7.46893e-06
0.00211324
7.26524e-06
0.00211112
7.07097e-06
0.00210906
6.88546e-06
0.00210706
6.70812e-06
0.00210511
6.53839e-06
0.00210321