/*--------------------------------*- C++ -*----------------------------------*\
| =========                 |                                                 |
| \\      /  F ield         | OpenFOAM: The Open Source CFD Toolbox           |
|  \\    /   O peration     | Version:  2506                                  |
|   \\  /    A nd           | Website:  www.openfoam.com                      |
|    \\/     M anipulation  |                                                 |
\*---------------------------------------------------------------------------*/
FoamFile
{
    version     2.0;
    format      ascii;
    arch        "LSB;label=32;scalar=64";
    class       volVectorField;
    location    "800";
    object      U;
}
// * * * * * * * * * * * * * * * * * * * * * * * * * * * * * * * * * * * * * //

dimensions      [0 1 -1 0 0 0 0];

internalField   nonuniform List<vector> 
131949
(
(9.79004 0.50869 0)
(9.35424 0.191718 0)
(9.14346 0.0846578 0)
(9.05442 0.0439539 0)
(8.98406 0.0273121 0)
(8.92302 0.0209584 0)
(8.87475 0.0179553 0)
(8.83487 0.0158988 0)
(8.79991 0.0143153 0)
(8.76875 0.0130463 0)
(8.74079 0.0119818 0)
(8.71541 0.0110693 0)
(8.69214 0.0102813 0)
(8.67066 0.00959541 0)
(8.65071 0.00899311 0)
(8.63209 0.00846032 0)
(8.61463 0.00798593 0)
(8.59819 0.00756096 0)
(8.58266 0.00717811 0)
(8.56795 0.00683143 0)
(8.55397 0.00651601 0)
(8.54066 0.00622777 0)
(8.52795 0.00596332 0)
(8.5158 0.00571978 0)
(8.50416 0.00549474 0)
(8.49298 0.00528612 0)
(8.48224 0.00509216 0)
(8.4719 0.00491132 0)
(8.46194 0.00474228 0)
(8.45232 0.00458389 0)
(8.44303 0.00443515 0)
(8.43405 0.00429517 0)
(8.42536 0.00416318 0)
(8.41693 0.00403848 0)
(8.40877 0.00392046 0)
(8.40084 0.00380858 0)
(8.39314 0.00370236 0)
(8.38567 0.00360134 0)
(8.37839 0.00350514 0)
(8.37132 0.00341341 0)
(8.36443 0.00332583 0)
(8.35772 0.0032421 0)
(8.35118 0.00316196 0)
(8.34481 0.00308518 0)
(8.33859 0.00301153 0)
(8.33252 0.00294081 0)
(8.32659 0.00287284 0)
(8.32081 0.00280745 0)
(8.31515 0.00274448 0)
(8.30963 0.0026838 0)
(8.30422 0.00262527 0)
(8.29894 0.00256877 0)
(8.29377 0.00251418 0)
(8.28871 0.00246141 0)
(8.28376 0.00241035 0)
(8.27891 0.00236092 0)
(8.27416 0.00231302 0)
(8.26951 0.00226659 0)
(8.26496 0.00222155 0)
(8.26049 0.00217784 0)
(8.25611 0.00213538 0)
(8.25182 0.00209411 0)
(8.24761 0.00205399 0)
(8.24348 0.00201496 0)
(8.23944 0.00197697 0)
(8.23546 0.00193997 0)
(8.23157 0.00190392 0)
(8.22774 0.00186878 0)
(8.22399 0.00183451 0)
(8.22031 0.00180107 0)
(8.21669 0.00176842 0)
(8.21314 0.00173655 0)
(8.20965 0.00170541 0)
(8.20623 0.00167497 0)
(8.20287 0.00164521 0)
(8.19956 0.0016161 0)
(8.19632 0.00158761 0)
(8.19313 0.00155973 0)
(8.19 0.00153242 0)
(8.18693 0.00150567 0)
(8.18391 0.00147946 0)
(8.18094 0.00145376 0)
(8.17802 0.00142857 0)
(8.17516 0.00140385 0)
(8.17234 0.0013796 0)
(8.16958 0.00135579 0)
(8.16686 0.00133242 0)
(8.16418 0.00130946 0)
(8.16156 0.00128691 0)
(8.15898 0.00126474 0)
(8.15644 0.00124295 0)
(8.15395 0.00122153 0)
(8.1515 0.00120046 0)
(8.1491 0.00117973 0)
(8.14673 0.00115933 0)
(8.14441 0.00113925 0)
(8.14212 0.00111947 0)
(8.13988 0.0011 0)
(8.13768 0.00108082 0)
(8.13551 0.00106192 0)
(8.13338 0.0010433 0)
(8.13129 0.00102494 0)
(8.12924 0.00100683 0)
(8.12722 0.000988976 0)
(8.12524 0.000971363 0)
(8.12329 0.000953986 0)
(8.12138 0.000936837 0)
(8.11951 0.000919909 0)
(8.11766 0.000903198 0)
(8.11585 0.000886695 0)
(8.11408 0.000870397 0)
(8.11234 0.000854297 0)
(8.11062 0.000838389 0)
(8.10895 0.000822669 0)
(8.1073 0.000807132 0)
(8.10568 0.000791773 0)
(8.1041 0.000776586 0)
(8.10254 0.000761568 0)
(8.10102 0.000746715 0)
(8.09952 0.000732021 0)
(8.09806 0.000717484 0)
(8.09662 0.0007031 0)
(8.09522 0.000688864 0)
(8.09384 0.000674773 0)
(8.09249 0.000660823 0)
(8.09116 0.000647013 0)
(8.08987 0.000633337 0)
(8.0886 0.000619794 0)
(8.08736 0.00060638 0)
(8.08615 0.000593092 0)
(8.08496 0.000579928 0)
(8.0838 0.000566886 0)
(8.08267 0.000553962 0)
(8.08156 0.000541155 0)
(8.08048 0.000528462 0)
(8.07942 0.00051588 0)
(8.07839 0.000503409 0)
(8.07739 0.000491046 0)
(8.0764 0.000478789 0)
(8.07545 0.000466636 0)
(8.07451 0.000454585 0)
(8.07361 0.000442636 0)
(8.07272 0.000430786 0)
(8.07186 0.000419033 0)
(8.07102 0.000407378 0)
(8.07021 0.000395817 0)
(8.06942 0.000384351 0)
(8.06865 0.000372978 0)
(8.06791 0.000361696 0)
(8.06718 0.000350505 0)
(8.06648 0.000339404 0)
(8.06581 0.000328392 0)
(8.06515 0.000317467 0)
(8.06452 0.00030663 0)
(8.0639 0.00029588 0)
(8.06331 0.000285216 0)
(8.06275 0.000274636 0)
(8.0622 0.000264142 0)
(8.06167 0.000253732 0)
(8.06116 0.000243406 0)
(8.06068 0.000233163 0)
(8.06021 0.000223003 0)
(8.05977 0.000212926 0)
(8.05935 0.000202931 0)
(8.05894 0.000193018 0)
(8.05856 0.000183188 0)
(8.05819 0.000173439 0)
(8.05785 0.000163772 0)
(8.05752 0.000154186 0)
(8.05721 0.000144682 0)
(8.05693 0.000135259 0)
(8.05666 0.000125918 0)
(8.05641 0.000116658 0)
(8.05618 0.000107479 0)
(8.05596 9.83821e-05 0)
(8.05577 8.93664e-05 0)
(8.05559 8.04322e-05 0)
(8.05543 7.15796e-05 0)
(8.05529 6.28088e-05 0)
(8.05517 5.41197e-05 0)
(8.05506 4.55126e-05 0)
(8.05497 3.69875e-05 0)
(8.0549 2.85445e-05 0)
(8.05484 2.01838e-05 0)
(8.05481 1.19055e-05 0)
(8.05478 3.7097e-06 0)
(8.05478 -4.40346e-06 0)
(8.05479 -1.24339e-05 0)
(8.05481 -2.03814e-05 0)
(8.05486 -2.82459e-05 0)
(8.05492 -3.60273e-05 0)
(8.05499 -4.37256e-05 0)
(8.05508 -5.13406e-05 0)
(8.05518 -5.88722e-05 0)
(8.0553 -6.63204e-05 0)
(8.05544 -7.36852e-05 0)
(8.05558 -8.09665e-05 0)
(8.05575 -8.81642e-05 0)
(8.05593 -9.52784e-05 0)
(8.05612 -0.000102309 1.81424e-105)
(8.05632 -0.000109256 -1.81414e-105)
(8.05654 -0.00011612 0)
(8.05678 -0.0001229 0)
(8.05703 -0.000129597 0)
(8.05729 -0.000136211 0)
(8.05756 -0.000142742 0)
(8.05785 -0.00014919 0)
(8.05815 -0.000155555 0)
(8.05846 -0.000161837 0)
(8.05878 -0.000168037 0)
(8.05912 -0.000174155 0)
(8.05947 -0.000180191 0)
(8.05983 -0.000186145 0)
(8.0602 -0.000192017 0)
(8.06059 -0.000197809 0)
(8.06099 -0.000203519 0)
(8.06139 -0.00020915 0)
(8.06181 -0.0002147 0)
(8.06224 -0.00022017 0)
(8.06269 -0.000225561 0)
(8.06314 -0.000230873 0)
(8.0636 -0.000236107 0)
(8.06407 -0.000241262 0)
(8.06456 -0.00024634 0)
(8.06505 -0.000251341 0)
(8.06555 -0.000256265 0)
(8.06607 -0.000261113 0)
(8.06659 -0.000265885 0)
(8.06712 -0.000270582 0)
(8.06766 -0.000275205 0)
(8.06821 -0.000279753 0)
(8.06877 -0.000284228 0)
(8.06934 -0.00028863 0)
(8.06992 -0.00029296 0)
(8.07051 -0.000297219 0)
(8.0711 -0.000301406 0)
(8.0717 -0.000305522 0)
(8.07232 -0.000309569 0)
(8.07294 -0.000313546 0)
(8.07356 -0.000317455 0)
(8.0742 -0.000321295 0)
(8.07484 -0.000325069 0)
(8.07549 -0.000328775 0)
(8.07615 -0.000332415 0)
(8.07681 -0.00033599 0)
(8.07748 -0.0003395 0)
(8.07816 -0.000342945 0)
(8.07885 -0.000346327 0)
(8.07954 -0.000349646 0)
(8.08024 -0.000352903 0)
(8.08095 -0.000356097 0)
(8.08166 -0.000359231 0)
(8.08238 -0.000362304 0)
(8.0831 -0.000365318 0)
(8.08383 -0.000368272 0)
(8.08457 -0.000371167 0)
(8.08531 -0.000374005 0)
(8.08606 -0.000376785 0)
(8.08681 -0.000379508 0)
(8.08757 -0.000382175 0)
(8.08833 -0.000384787 0)
(8.0891 -0.000387343 0)
(8.08988 -0.000389845 0)
(8.09065 -0.000392293 0)
(8.09144 -0.000394688 0)
(8.09223 -0.00039703 0)
(8.09302 -0.000399321 0)
(8.09382 -0.000401559 0)
(8.09462 -0.000403747 0)
(8.09543 -0.000405884 0)
(8.09624 -0.000407971 0)
(8.09705 -0.000410008 0)
(8.09787 -0.000411997 0)
(8.0987 -0.000413938 0)
(8.09952 -0.00041583 0)
(8.10035 -0.000417676 0)
(8.10119 -0.000419474 0)
(8.10203 -0.000421227 0)
(8.10287 -0.000422933 0)
(8.10371 -0.000424594 0)
(8.10456 -0.000426211 0)
(8.10541 -0.000427783 0)
(8.10627 -0.000429312 0)
(8.10712 -0.000430797 0)
(8.10799 -0.000432239 0)
(8.10885 -0.000433639 0)
(8.10971 -0.000434997 0)
(8.11058 -0.000436314 0)
(8.11145 -0.00043759 0)
(8.11233 -0.000438825 0)
(8.1132 -0.00044002 0)
(8.11408 -0.000441176 0)
(8.11496 -0.000442292 0)
(8.11585 -0.00044337 0)
(8.11673 -0.000444409 0)
(8.11762 -0.000445411 0)
(8.11851 -0.000446376 0)
(8.1194 -0.000447303 0)
(8.12029 -0.000448194 0)
(8.12119 -0.000449049 0)
(8.12209 -0.000449869 0)
(8.12298 -0.000450653 0)
(8.12388 -0.000451402 0)
(8.12479 -0.000452118 0)
(8.12569 -0.000452799 0)
(8.12659 -0.000453447 0)
(8.1275 -0.000454061 0)
(8.1284 -0.000454643 0)
(8.12931 -0.000455193 0)
(8.13022 -0.000455711 0)
(8.13113 -0.000456198 0)
(8.13204 -0.000456654 0)
(8.13295 -0.000457079 0)
(8.13387 -0.000457474 0)
(8.13478 -0.000457839 0)
(8.13569 -0.000458175 0)
(8.13661 -0.000458481 0)
(8.13752 -0.000458759 0)
(8.13844 -0.000459009 0)
(8.13935 -0.000459232 0)
(8.14027 -0.000459426 0)
(8.14119 -0.000459594 0)
(8.14211 -0.000459735 0)
(8.14302 -0.00045985 0)
(8.14394 -0.000459938 0)
(8.14486 -0.000460002 0)
(8.14578 -0.00046004 0)
(8.1467 -0.000460053 0)
(8.14761 -0.000460042 0)
(8.14853 -0.000460007 0)
(8.14945 -0.000459948 0)
(8.15037 -0.000459866 0)
(8.15129 -0.00045976 0)
(8.1522 -0.000459632 0)
(8.15312 -0.000459482 0)
(8.15404 -0.000459309 0)
(8.15495 -0.000459115 0)
(8.15587 -0.0004589 0)
(8.15679 -0.000458663 0)
(8.1577 -0.000458406 0)
(8.15862 -0.000458129 0)
(8.15953 -0.000457831 0)
(8.16044 -0.000457513 0)
(8.16136 -0.000457176 0)
(8.16227 -0.00045682 0)
(8.16318 -0.000456444 0)
(8.16409 -0.00045605 0)
(8.165 -0.000455638 0)
(8.16591 -0.000455207 0)
(8.16682 -0.000454758 0)
(8.16773 -0.000454292 0)
(8.16863 -0.000453808 0)
(8.16954 -0.000453307 0)
(8.17044 -0.000452789 0)
(8.17135 -0.000452254 0)
(8.17225 -0.000451702 0)
(8.17315 -0.000451134 0)
(8.17405 -0.000450549 0)
(8.17495 -0.000449949 0)
(8.17585 -0.000449332 0)
(8.17674 -0.000448699 0)
(8.17764 -0.000448051 0)
(8.17853 -0.000447387 0)
(8.17943 -0.000446707 0)
(8.18032 -0.000446012 0)
(8.18121 -0.000445301 0)
(8.1821 -0.000444575 0)
(8.18298 -0.000443833 0)
(8.18387 -0.000443076 0)
(8.18475 -0.000442303 0)
(8.18563 -0.000441515 0)
(8.18651 -0.000440711 0)
(8.18739 -0.00043989 0)
(8.18827 -0.000439054 0)
(8.18915 -0.000438201 0)
(8.19002 -0.000437331 0)
(8.19089 -0.000436445 0)
(8.19176 -0.000435541 0)
(8.19263 -0.000434619 0)
(8.1935 -0.000433679 0)
(8.19436 -0.000432719 0)
(8.19523 -0.00043174 0)
(8.19609 -0.000430741 0)
(8.19695 -0.00042972 0)
(8.19781 -0.000428676 0)
(8.19866 -0.000427609 0)
(8.19951 -0.000426516 0)
(8.20036 -0.000425397 0)
(8.20121 -0.000424249 0)
(8.20206 -0.00042307 0)
(8.2029 -0.000421859 0)
(8.20374 -0.000420611 0)
(8.20458 -0.000419323 0)
(8.20542 -0.00041799 0)
(8.20625 -0.000416615 0)
(8.20708 -0.000415152 0)
(8.20791 -0.000413764 0)
(8.20874 -0.000411691 0)
(8.2095 -0.000412369 0)
(8.21062 -0.000400053 0)
(9.89636 0.592428 0)
(9.64868 0.329307 0)
(9.44654 0.219669 0)
(9.30553 0.153639 0)
(9.19287 0.111411 0)
(9.10032 0.0866492 0)
(9.02652 0.0711005 0)
(8.96656 0.0601998 0)
(8.91599 0.0522247 0)
(8.87242 0.0462135 0)
(8.83435 0.0414992 0)
(8.80061 0.0376831 0)
(8.77033 0.0345276 0)
(8.74289 0.0318723 0)
(8.71781 0.0296038 0)
(8.69472 0.0276413 0)
(8.67334 0.0259255 0)
(8.65344 0.0244118 0)
(8.63483 0.0230658 0)
(8.61735 0.0218605 0)
(8.60088 0.0207745 0)
(8.58531 0.0197905 0)
(8.57055 0.0188944 0)
(8.55652 0.0180748 0)
(8.54316 0.017322 0)
(8.5304 0.016628 0)
(8.51819 0.0159859 0)
(8.5065 0.0153899 0)
(8.49527 0.0148352 0)
(8.48449 0.0143174 0)
(8.4741 0.0138329 0)
(8.4641 0.0133784 0)
(8.45444 0.0129511 0)
(8.44512 0.0125486 0)
(8.43611 0.0121686 0)
(8.42738 0.0118094 0)
(8.41893 0.011469 0)
(8.41074 0.0111461 0)
(8.40279 0.0108392 0)
(8.39508 0.0105472 0)
(8.38758 0.0102688 0)
(8.38029 0.0100032 0)
(8.3732 0.00974941 0)
(8.3663 0.0095066 0)
(8.35958 0.00927405 0)
(8.35303 0.00905108 0)
(8.34665 0.00883706 0)
(8.34042 0.00863144 0)
(8.33435 0.00843369 0)
(8.32842 0.00824334 0)
(8.32263 0.00805994 0)
(8.31698 0.00788309 0)
(8.31145 0.00771242 0)
(8.30605 0.00754759 0)
(8.30077 0.00738826 0)
(8.2956 0.00723415 0)
(8.29055 0.00708498 0)
(8.2856 0.00694048 0)
(8.28076 0.00680043 0)
(8.27602 0.0066646 0)
(8.27137 0.00653277 0)
(8.26682 0.00640476 0)
(8.26237 0.00628038 0)
(8.258 0.00615946 0)
(8.25372 0.00604185 0)
(8.24952 0.00592738 0)
(8.2454 0.00581592 0)
(8.24137 0.00570733 0)
(8.23741 0.00560149 0)
(8.23352 0.00549829 0)
(8.22971 0.0053976 0)
(8.22597 0.00529933 0)
(8.2223 0.00520336 0)
(8.2187 0.00510962 0)
(8.21517 0.00501801 0)
(8.21169 0.00492844 0)
(8.20829 0.00484084 0)
(8.20494 0.00475513 0)
(8.20166 0.00467123 0)
(8.19843 0.00458908 0)
(8.19526 0.00450861 0)
(8.19215 0.00442976 0)
(8.18909 0.00435247 0)
(8.18609 0.00427668 0)
(8.18314 0.00420235 0)
(8.18024 0.00412941 0)
(8.1774 0.00405782 0)
(8.1746 0.00398753 0)
(8.17185 0.00391851 0)
(8.16915 0.00385069 0)
(8.1665 0.00378405 0)
(8.16389 0.00371855 0)
(8.16133 0.00365414 0)
(8.15882 0.0035908 0)
(8.15635 0.00352848 0)
(8.15392 0.00346716 0)
(8.15154 0.0034068 0)
(8.14919 0.00334737 0)
(8.14689 0.00328884 0)
(8.14463 0.00323119 0)
(8.14241 0.00317439 0)
(8.14023 0.00311841 0)
(8.13808 0.00306323 0)
(8.13598 0.00300882 0)
(8.13391 0.00295517 0)
(8.13188 0.00290224 0)
(8.12988 0.00285002 0)
(8.12793 0.00279849 0)
(8.126 0.00274762 0)
(8.12412 0.00269741 0)
(8.12226 0.00264782 0)
(8.12045 0.00259885 0)
(8.11866 0.00255048 0)
(8.11691 0.00250268 0)
(8.11519 0.00245545 0)
(8.1135 0.00240877 0)
(8.11185 0.00236263 0)
(8.11023 0.002317 0)
(8.10864 0.00227188 0)
(8.10708 0.00222726 0)
(8.10555 0.00218312 0)
(8.10405 0.00213945 0)
(8.10258 0.00209624 0)
(8.10114 0.00205348 0)
(8.09973 0.00201116 0)
(8.09835 0.00196926 0)
(8.09699 0.00192778 0)
(8.09567 0.0018867 0)
(8.09437 0.00184602 0)
(8.0931 0.00180574 0)
(8.09186 0.00176583 0)
(8.09065 0.0017263 0)
(8.08946 0.00168714 0)
(8.0883 0.00164833 0)
(8.08717 0.00160987 0)
(8.08606 0.00157176 0)
(8.08498 0.00153398 0)
(8.08393 0.00149654 0)
(8.0829 0.00145942 0)
(8.08189 0.00142263 0)
(8.08091 0.00138615 0)
(8.07996 0.00134997 0)
(8.07903 0.00131411 0)
(8.07812 0.00127854 0)
(8.07724 0.00124327 0)
(8.07638 0.00120829 0)
(8.07555 0.0011736 0)
(8.07474 0.0011392 0)
(8.07395 0.00110507 0)
(8.07319 0.00107123 0)
(8.07245 0.00103765 0)
(8.07173 0.00100435 0)
(8.07103 0.000971324 0)
(8.07036 0.000938561 0)
(8.06971 0.000906062 0)
(8.06908 0.000873826 0)
(8.06848 0.00084185 0)
(8.06789 0.000810133 0)
(8.06733 0.000778673 0)
(8.06679 0.000747469 0)
(8.06626 0.000716519 0)
(8.06576 0.000685822 0)
(8.06529 0.000655378 0)
(8.06483 0.000625184 0)
(8.06439 0.000595241 0)
(8.06397 0.000565548 0)
(8.06357 0.000536103 0)
(8.0632 0.000506907 0)
(8.06284 0.000477959 0)
(8.0625 0.000449259 0)
(8.06218 0.000420806 0)
(8.06188 0.000392601 0)
(8.0616 0.000364642 0)
(8.06134 0.000336932 0)
(8.06109 0.000309468 0)
(8.06087 0.000282251 0)
(8.06066 0.000255282 0)
(8.06048 0.000228561 0)
(8.06031 0.000202088 0)
(8.06015 0.000175862 0)
(8.06002 0.000149885 0)
(8.0599 0.000124157 0)
(8.0598 9.8677e-05 0)
(8.05972 7.34467e-05 0)
(8.05966 4.8466e-05 0)
(8.05961 2.37351e-05 0)
(8.05958 -7.45503e-07 0)
(8.05956 -2.49756e-05 0)
(8.05956 -4.89549e-05 0)
(8.05958 -7.26831e-05 0)
(8.05961 -9.61599e-05 0)
(8.05966 -0.000119385 0)
(8.05973 -0.000142358 0)
(8.05981 -0.00016508 0)
(8.0599 -0.000187549 0)
(8.06001 -0.000209765 0)
(8.06014 -0.00023173 0)
(8.06028 -0.000253442 0)
(8.06043 -0.000274902 0)
(8.0606 -0.000296109 0)
(8.06079 -0.000317064 0)
(8.06098 -0.000337767 0)
(8.0612 -0.000358218 0)
(8.06142 -0.000378418 0)
(8.06166 -0.000398366 0)
(8.06191 -0.000418063 0)
(8.06218 -0.00043751 0)
(8.06246 -0.000456708 0)
(8.06275 -0.000475655 0)
(8.06305 -0.000494355 0)
(8.06337 -0.000512806 0)
(8.0637 -0.000531009 0)
(8.06404 -0.000548966 0)
(8.0644 -0.000566678 0)
(8.06476 -0.000584145 0)
(8.06514 -0.000601368 0)
(8.06553 -0.000618348 0)
(8.06593 -0.000635087 0)
(8.06634 -0.000651585 0)
(8.06676 -0.000667844 0)
(8.0672 -0.000683865 0)
(8.06764 -0.000699649 0)
(8.0681 -0.000715198 0)
(8.06856 -0.000730513 0)
(8.06904 -0.000745595 0)
(8.06952 -0.000760446 0)
(8.07002 -0.000775067 0)
(8.07052 -0.000789461 0)
(8.07104 -0.000803628 0)
(8.07156 -0.000817571 0)
(8.0721 -0.00083129 0)
(8.07264 -0.000844788 0)
(8.07319 -0.000858066 0)
(8.07376 -0.000871127 0)
(8.07433 -0.000883971 0)
(8.0749 -0.000896602 0)
(8.07549 -0.000909019 0)
(8.07609 -0.000921226 0)
(8.07669 -0.000933225 0)
(8.0773 -0.000945016 0)
(8.07792 -0.000956602 0)
(8.07855 -0.000967986 0)
(8.07919 -0.000979168 0)
(8.07983 -0.000990151 0)
(8.08048 -0.00100094 0)
(8.08114 -0.00101153 0)
(8.0818 -0.00102192 0)
(8.08247 -0.00103213 0)
(8.08315 -0.00104214 0)
(8.08383 -0.00105197 0)
(8.08453 -0.00106161 0)
(8.08522 -0.00107107 0)
(8.08593 -0.00108034 0)
(8.08664 -0.00108944 0)
(8.08736 -0.00109835 0)
(8.08808 -0.00110709 0)
(8.08881 -0.00111566 0)
(8.08954 -0.00112405 0)
(8.09028 -0.00113227 0)
(8.09103 -0.00114032 0)
(8.09178 -0.00114821 0)
(8.09253 -0.00115593 0)
(8.09329 -0.00116348 0)
(8.09406 -0.00117088 0)
(8.09483 -0.00117811 0)
(8.09561 -0.00118518 0)
(8.09639 -0.0011921 0)
(8.09717 -0.00119886 0)
(8.09796 -0.00120547 0)
(8.09876 -0.00121193 0)
(8.09956 -0.00121823 0)
(8.10036 -0.00122439 0)
(8.10117 -0.0012304 0)
(8.10198 -0.00123626 0)
(8.1028 -0.00124199 0)
(8.10361 -0.00124756 0)
(8.10444 -0.001253 0)
(8.10526 -0.0012583 0)
(8.10609 -0.00126346 0)
(8.10693 -0.00126848 0)
(8.10776 -0.00127337 0)
(8.1086 -0.00127813 0)
(8.10945 -0.00128275 0)
(8.11029 -0.00128725 0)
(8.11114 -0.00129161 0)
(8.112 -0.00129585 0)
(8.11285 -0.00129996 0)
(8.11371 -0.00130395 0)
(8.11457 -0.00130781 0)
(8.11543 -0.00131155 0)
(8.1163 -0.00131518 0)
(8.11717 -0.00131868 0)
(8.11804 -0.00132206 0)
(8.11891 -0.00132533 0)
(8.11979 -0.00132848 0)
(8.12067 -0.00133152 0)
(8.12155 -0.00133445 0)
(8.12243 -0.00133727 0)
(8.12331 -0.00133997 0)
(8.12419 -0.00134257 0)
(8.12508 -0.00134506 0)
(8.12597 -0.00134744 0)
(8.12686 -0.00134972 0)
(8.12775 -0.0013519 0)
(8.12865 -0.00135398 0)
(8.12954 -0.00135595 0)
(8.13044 -0.00135782 0)
(8.13133 -0.0013596 0)
(8.13223 -0.00136128 0)
(8.13313 -0.00136286 0)
(8.13403 -0.00136435 0)
(8.13493 -0.00136575 0)
(8.13584 -0.00136705 0)
(8.13674 -0.00136826 0)
(8.13764 -0.00136939 0)
(8.13855 -0.00137042 0)
(8.13946 -0.00137137 0)
(8.14036 -0.00137223 0)
(8.14127 -0.00137301 0)
(8.14218 -0.0013737 0)
(8.14308 -0.00137431 0)
(8.14399 -0.00137484 0)
(8.1449 -0.00137529 0)
(8.14581 -0.00137566 0)
(8.14672 -0.00137595 0)
(8.14763 -0.00137617 0)
(8.14854 -0.0013763 0)
(8.14945 -0.00137637 0)
(8.15036 -0.00137636 0)
(8.15127 -0.00137628 0)
(8.15218 -0.00137613 0)
(8.15309 -0.0013759 0)
(8.154 -0.00137561 0)
(8.15491 -0.00137525 0)
(8.15582 -0.00137482 0)
(8.15673 -0.00137433 0)
(8.15764 -0.00137377 0)
(8.15855 -0.00137314 0)
(8.15945 -0.00137246 0)
(8.16036 -0.00137171 0)
(8.16127 -0.00137089 0)
(8.16218 -0.00137002 0)
(8.16308 -0.00136909 0)
(8.16399 -0.0013681 0)
(8.16489 -0.00136705 0)
(8.1658 -0.00136595 0)
(8.1667 -0.00136479 0)
(8.1676 -0.00136357 0)
(8.1685 -0.0013623 0)
(8.16941 -0.00136097 0)
(8.17031 -0.00135959 0)
(8.17121 -0.00135816 0)
(8.1721 -0.00135668 0)
(8.173 -0.00135514 0)
(8.1739 -0.00135356 0)
(8.17479 -0.00135192 0)
(8.17569 -0.00135023 0)
(8.17658 -0.0013485 0)
(8.17747 -0.00134672 0)
(8.17836 -0.00134489 0)
(8.17925 -0.00134301 0)
(8.18014 -0.00134108 0)
(8.18103 -0.00133911 0)
(8.18192 -0.00133709 0)
(8.1828 -0.00133502 0)
(8.18368 -0.0013329 0)
(8.18456 -0.00133074 0)
(8.18545 -0.00132853 0)
(8.18632 -0.00132628 0)
(8.1872 -0.00132398 0)
(8.18808 -0.00132163 0)
(8.18895 -0.00131924 0)
(8.18983 -0.00131679 0)
(8.1907 -0.0013143 0)
(8.19157 -0.00131176 0)
(8.19243 -0.00130917 0)
(8.1933 -0.00130652 0)
(8.19416 -0.00130383 0)
(8.19503 -0.00130108 0)
(8.19589 -0.00129828 0)
(8.19675 -0.00129542 0)
(8.1976 -0.0012925 0)
(8.19846 -0.00128951 0)
(8.19931 -0.00128647 0)
(8.20016 -0.00128335 0)
(8.20101 -0.00128017 0)
(8.20186 -0.00127691 0)
(8.2027 -0.00127357 0)
(8.20355 -0.00127014 0)
(8.20439 -0.00126663 0)
(8.20523 -0.00126301 0)
(8.20606 -0.00125929 0)
(8.20689 -0.00125545 0)
(8.20772 -0.00125147 0)
(8.20855 -0.00124736 0)
(8.20938 -0.00124303 0)
(8.2102 -0.0012387 0)
(8.21103 -0.00123325 0)
(8.21179 -0.00123117 0)
(8.21289 -0.00121043 0)
(9.94546 0.725989 0)
(9.82597 0.524082 0)
(9.67686 0.393795 0)
(9.54203 0.299195 0)
(9.42458 0.230721 0)
(9.32183 0.183518 0)
(9.23371 0.150473 0)
(9.15852 0.126349 0)
(9.09364 0.108291 0)
(9.03704 0.0945002 0)
(8.98724 0.0837042 0)
(8.94303 0.0750514 0)
(8.90344 0.0679809 0)
(8.86771 0.062106 0)
(8.83521 0.0571518 0)
(8.80548 0.0529194 0)
(8.77812 0.0492629 0)
(8.75282 0.046073 0)
(8.7293 0.0432657 0)
(8.70736 0.0407761 0)
(8.68682 0.0385531 0)
(8.66751 0.0365558 0)
(8.64931 0.0347514 0)
(8.6321 0.0331128 0)
(8.6158 0.0316181 0)
(8.60032 0.0302489 0)
(8.58558 0.0289897 0)
(8.57152 0.0278277 0)
(8.55809 0.0267518 0)
(8.54524 0.0257525 0)
(8.53292 0.0248219 0)
(8.52109 0.0239529 0)
(8.50972 0.0231394 0)
(8.49878 0.0223761 0)
(8.48823 0.0216584 0)
(8.47806 0.0209822 0)
(8.46824 0.0203438 0)
(8.45875 0.0197401 0)
(8.44957 0.0191682 0)
(8.44068 0.0186256 0)
(8.43207 0.0181099 0)
(8.42371 0.0176191 0)
(8.41561 0.0171514 0)
(8.40773 0.0167051 0)
(8.40009 0.0162787 0)
(8.39265 0.0158707 0)
(8.38541 0.0154801 0)
(8.37837 0.0151056 0)
(8.37152 0.0147461 0)
(8.36484 0.0144008 0)
(8.35832 0.0140688 0)
(8.35197 0.0137492 0)
(8.34578 0.0134413 0)
(8.33973 0.0131444 0)
(8.33383 0.012858 0)
(8.32806 0.0125813 0)
(8.32243 0.012314 0)
(8.31692 0.0120554 0)
(8.31154 0.0118052 0)
(8.30628 0.0115628 0)
(8.30113 0.0113279 0)
(8.29609 0.0111001 0)
(8.29116 0.010879 0)
(8.28634 0.0106644 0)
(8.28161 0.0104558 0)
(8.27698 0.0102531 0)
(8.27245 0.010056 0)
(8.26801 0.00986414 0)
(8.26366 0.00967734 0)
(8.25939 0.00949539 0)
(8.25521 0.00931805 0)
(8.25111 0.00914514 0)
(8.24709 0.00897646 0)
(8.24314 0.00881184 0)
(8.23928 0.00865111 0)
(8.23548 0.00849411 0)
(8.23176 0.00834068 0)
(8.22811 0.00819069 0)
(8.22452 0.00804401 0)
(8.221 0.00790049 0)
(8.21755 0.00776003 0)
(8.21416 0.0076225 0)
(8.21083 0.00748779 0)
(8.20757 0.0073558 0)
(8.20436 0.00722643 0)
(8.20121 0.00709959 0)
(8.19812 0.00697518 0)
(8.19508 0.00685311 0)
(8.1921 0.00673331 0)
(8.18917 0.0066157 0)
(8.18629 0.00650019 0)
(8.18347 0.00638673 0)
(8.18069 0.00627523 0)
(8.17797 0.00616563 0)
(8.17529 0.00605788 0)
(8.17266 0.00595191 0)
(8.17008 0.00584766 0)
(8.16755 0.00574507 0)
(8.16505 0.0056441 0)
(8.16261 0.0055447 0)
(8.1602 0.0054468 0)
(8.15784 0.00535038 0)
(8.15553 0.00525537 0)
(8.15325 0.00516174 0)
(8.15101 0.00506945 0)
(8.14882 0.00497846 0)
(8.14666 0.00488873 0)
(8.14455 0.00480022 0)
(8.14247 0.00471289 0)
(8.14043 0.00462672 0)
(8.13843 0.00454166 0)
(8.13646 0.0044577 0)
(8.13453 0.00437479 0)
(8.13264 0.00429291 0)
(8.13078 0.00421202 0)
(8.12896 0.00413211 0)
(8.12717 0.00405315 0)
(8.12541 0.00397511 0)
(8.12369 0.00389796 0)
(8.122 0.00382169 0)
(8.12035 0.00374627 0)
(8.11873 0.00367169 0)
(8.11714 0.00359791 0)
(8.11558 0.00352491 0)
(8.11405 0.00345269 0)
(8.11255 0.00338123 0)
(8.11108 0.00331049 0)
(8.10965 0.00324047 0)
(8.10824 0.00317116 0)
(8.10686 0.00310252 0)
(8.10552 0.00303456 0)
(8.1042 0.00296725 0)
(8.10291 0.00290059 0)
(8.10165 0.00283455 0)
(8.10041 0.00276913 0)
(8.09921 0.00270431 0)
(8.09803 0.00264009 0)
(8.09688 0.00257644 0)
(8.09575 0.00251337 0)
(8.09465 0.00245085 0)
(8.09358 0.00238889 0)
(8.09254 0.00232746 0)
(8.09152 0.00226657 0)
(8.09052 0.0022062 0)
(8.08956 0.00214635 0)
(8.08861 0.00208701 0)
(8.08769 0.00202817 0)
(8.0868 0.00196983 0)
(8.08593 0.00191197 0)
(8.08509 0.0018546 0)
(8.08427 0.0017977 0)
(8.08347 0.00174127 0)
(8.0827 0.00168532 0)
(8.08195 0.00162982 0)
(8.08122 0.00157479 0)
(8.08052 0.0015202 0)
(8.07984 0.00146607 0)
(8.07918 0.00141239 0)
(8.07855 0.00135915 0)
(8.07793 0.00130635 0)
(8.07734 0.00125399 0)
(8.07677 0.00120206 0)
(8.07623 0.00115058 0)
(8.0757 0.00109952 0)
(8.0752 0.00104889 0)
(8.07471 0.000998694 0)
(8.07425 0.000948924 0)
(8.07381 0.000899581 0)
(8.07339 0.000850664 0)
(8.07299 0.000802171 0)
(8.07261 0.000754102 0)
(8.07224 0.000706457 0)
(8.0719 0.000659235 0)
(8.07158 0.000612436 0)
(8.07128 0.00056606 0)
(8.071 0.000520106 0)
(8.07073 0.000474575 0)
(8.07049 0.000429466 0)
(8.07026 0.00038478 0)
(8.07006 0.000340517 0)
(8.06987 0.000296677 0)
(8.0697 0.00025326 0)
(8.06954 0.000210268 0)
(8.06941 0.000167699 0)
(8.06929 0.000125555 0)
(8.06919 8.38357e-05 0)
(8.06911 4.25415e-05 0)
(8.06904 1.6729e-06 0)
(8.06899 -3.87699e-05 0)
(8.06896 -7.87865e-05 0)
(8.06894 -0.000118377 0)
(8.06894 -0.00015754 0)
(8.06896 -0.000196276 0)
(8.06899 -0.000234585 0)
(8.06904 -0.000272467 0)
(8.06911 -0.000309922 0)
(8.06918 -0.000346949 0)
(8.06928 -0.00038355 0)
(8.06939 -0.000419723 0)
(8.06951 -0.000455469 2.82018e-103)
(8.06965 -0.000490789 -2.82005e-103)
(8.06981 -0.000525682 0)
(8.06998 -0.00056015 0)
(8.07016 -0.000594193 0)
(8.07036 -0.000627811 0)
(8.07057 -0.000661006 0)
(8.07079 -0.000693777 0)
(8.07103 -0.000726127 0)
(8.07128 -0.000758056 0)
(8.07154 -0.000789565 0)
(8.07182 -0.000820656 0)
(8.07211 -0.00085133 0)
(8.07241 -0.000881587 0)
(8.07273 -0.000911431 0)
(8.07306 -0.000940862 0)
(8.0734 -0.000969882 0)
(8.07375 -0.000998493 0)
(8.07411 -0.0010267 0)
(8.07448 -0.00105449 0)
(8.07487 -0.00108189 0)
(8.07527 -0.00110888 0)
(8.07568 -0.00113548 0)
(8.0761 -0.00116168 0)
(8.07653 -0.00118748 0)
(8.07697 -0.0012129 0)
(8.07742 -0.00123792 0)
(8.07788 -0.00126256 0)
(8.07835 -0.00128682 0)
(8.07883 -0.00131069 0)
(8.07932 -0.00133419 0)
(8.07982 -0.00135731 0)
(8.08034 -0.00138005 0)
(8.08086 -0.00140243 0)
(8.08138 -0.00142444 0)
(8.08192 -0.00144609 0)
(8.08247 -0.00146738 0)
(8.08303 -0.00148831 0)
(8.08359 -0.00150889 0)
(8.08416 -0.00152911 0)
(8.08474 -0.00154899 0)
(8.08533 -0.00156853 0)
(8.08593 -0.00158772 0)
(8.08654 -0.00160657 0)
(8.08715 -0.00162509 0)
(8.08777 -0.00164328 0)
(8.0884 -0.00166113 0)
(8.08903 -0.00167867 0)
(8.08968 -0.00169588 0)
(8.09033 -0.00171277 0)
(8.09098 -0.00172935 0)
(8.09165 -0.00174561 0)
(8.09232 -0.00176157 0)
(8.09299 -0.00177722 0)
(8.09368 -0.00179256 0)
(8.09437 -0.00180761 0)
(8.09506 -0.00182236 0)
(8.09576 -0.00183682 0)
(8.09647 -0.00185099 0)
(8.09719 -0.00186487 0)
(8.0979 -0.00187846 0)
(8.09863 -0.00189178 0)
(8.09936 -0.00190481 0)
(8.1001 -0.00191757 0)
(8.10084 -0.00193006 0)
(8.10158 -0.00194228 0)
(8.10233 -0.00195423 0)
(8.10309 -0.00196592 0)
(8.10385 -0.00197735 0)
(8.10462 -0.00198852 0)
(8.10539 -0.00199944 0)
(8.10616 -0.0020101 0)
(8.10694 -0.00202052 0)
(8.10773 -0.00203069 0)
(8.10851 -0.00204061 0)
(8.10931 -0.00205029 0)
(8.1101 -0.00205973 0)
(8.1109 -0.00206894 0)
(8.11171 -0.00207791 0)
(8.11251 -0.00208665 0)
(8.11333 -0.00209517 0)
(8.11414 -0.00210345 0)
(8.11496 -0.00211152 0)
(8.11578 -0.00211936 0)
(8.1166 -0.00212698 0)
(8.11743 -0.00213439 0)
(8.11826 -0.00214158 0)
(8.1191 -0.00214856 0)
(8.11993 -0.00215533 0)
(8.12077 -0.0021619 0)
(8.12162 -0.00216826 0)
(8.12246 -0.00217442 0)
(8.12331 -0.00218038 0)
(8.12416 -0.00218614 0)
(8.12501 -0.0021917 0)
(8.12587 -0.00219708 0)
(8.12673 -0.00220226 0)
(8.12759 -0.00220725 0)
(8.12845 -0.00221206 0)
(8.12931 -0.00221668 0)
(8.13018 -0.00222112 0)
(8.13104 -0.00222539 0)
(8.13191 -0.00222947 0)
(8.13278 -0.00223338 0)
(8.13366 -0.00223711 0)
(8.13453 -0.00224068 0)
(8.13541 -0.00224407 0)
(8.13628 -0.0022473 0)
(8.13716 -0.00225037 0)
(8.13804 -0.00225327 0)
(8.13892 -0.00225601 0)
(8.13981 -0.00225859 0)
(8.14069 -0.00226101 0)
(8.14158 -0.00226329 0)
(8.14246 -0.0022654 0)
(8.14335 -0.00226737 0)
(8.14424 -0.00226919 0)
(8.14512 -0.00227087 0)
(8.14601 -0.00227239 0)
(8.1469 -0.00227378 0)
(8.14779 -0.00227503 0)
(8.14868 -0.00227614 0)
(8.14958 -0.00227711 0)
(8.15047 -0.00227794 0)
(8.15136 -0.00227865 0)
(8.15225 -0.00227922 0)
(8.15315 -0.00227967 0)
(8.15404 -0.00227999 0)
(8.15493 -0.00228018 0)
(8.15583 -0.00228025 0)
(8.15672 -0.00228019 0)
(8.15762 -0.00228002 0)
(8.15851 -0.00227973 0)
(8.1594 -0.00227933 0)
(8.1603 -0.0022788 0)
(8.16119 -0.00227817 0)
(8.16208 -0.00227743 0)
(8.16298 -0.00227657 0)
(8.16387 -0.00227561 0)
(8.16476 -0.00227454 0)
(8.16566 -0.00227337 0)
(8.16655 -0.00227209 0)
(8.16744 -0.00227071 0)
(8.16833 -0.00226923 0)
(8.16922 -0.00226766 0)
(8.17011 -0.00226598 0)
(8.171 -0.00226421 0)
(8.17189 -0.00226235 0)
(8.17278 -0.00226039 0)
(8.17367 -0.00225834 0)
(8.17455 -0.0022562 0)
(8.17544 -0.00225397 0)
(8.17632 -0.00225166 0)
(8.17721 -0.00224925 0)
(8.17809 -0.00224676 0)
(8.17897 -0.00224418 0)
(8.17986 -0.00224152 0)
(8.18074 -0.00223878 0)
(8.18162 -0.00223595 0)
(8.18249 -0.00223305 0)
(8.18337 -0.00223006 0)
(8.18425 -0.00222699 0)
(8.18512 -0.00222384 0)
(8.186 -0.00222062 0)
(8.18687 -0.00221731 0)
(8.18774 -0.00221393 0)
(8.18861 -0.00221047 0)
(8.18948 -0.00220693 0)
(8.19035 -0.00220331 0)
(8.19121 -0.00219961 0)
(8.19208 -0.00219584 0)
(8.19294 -0.00219198 0)
(8.1938 -0.00218805 0)
(8.19466 -0.00218403 0)
(8.19552 -0.00217994 0)
(8.19638 -0.00217576 0)
(8.19723 -0.0021715 0)
(8.19809 -0.00216716 0)
(8.19894 -0.00216272 0)
(8.19979 -0.0021582 0)
(8.20064 -0.00215358 0)
(8.20149 -0.00214887 0)
(8.20233 -0.00214406 0)
(8.20317 -0.00213915 0)
(8.20402 -0.00213413 0)
(8.20486 -0.002129 0)
(8.20569 -0.00212375 0)
(8.20653 -0.00211838 0)
(8.20736 -0.00211287 0)
(8.20819 -0.00210722 0)
(8.20902 -0.00210142 0)
(8.20985 -0.00209546 0)
(8.21067 -0.00208932 0)
(8.21149 -0.00208298 0)
(8.21231 -0.00207643 0)
(8.21313 -0.00206964 0)
(8.21394 -0.00206256 0)
(8.21475 -0.00205523 0)
(8.21557 -0.00204711 0)
(8.21633 -0.00203954 0)
(8.21741 -0.00202309 0)
(9.95588 0.782308 0)
(9.89615 0.625112 0)
(9.80208 0.503554 0)
(9.70137 0.409242 0)
(9.60377 0.335327 0)
(9.51099 0.278483 0)
(9.42517 0.234871 0)
(9.34747 0.200928 0)
(9.2775 0.174177 0)
(9.21448 0.152873 0)
(9.15765 0.135685 0)
(9.10626 0.121623 0)
(9.05962 0.109967 0)
(9.0171 0.10019 0)
(8.97816 0.0918968 0)
(8.94235 0.084789 0)
(8.90929 0.07864 0)
(8.87865 0.0732754 0)
(8.85014 0.0685588 0)
(8.82354 0.0643829 0)
(8.79863 0.0606621 0)
(8.77524 0.0573275 0)
(8.75321 0.0543231 0)
(8.73242 0.051603 0)
(8.71276 0.0491291 0)
(8.69411 0.04687 0)
(8.67639 0.0447989 0)
(8.65953 0.0428936 0)
(8.64345 0.041135 0)
(8.62809 0.0395068 0)
(8.6134 0.0379949 0)
(8.59933 0.0365874 0)
(8.58583 0.0352736 0)
(8.57287 0.0340446 0)
(8.56041 0.0328921 0)
(8.54841 0.0318093 0)