/*--------------------------------*- C++ -*----------------------------------*\
| =========                 |                                                 |
| \\      /  F ield         | OpenFOAM: The Open Source CFD Toolbox           |
|  \\    /   O peration     | Version:  2506                                  |
|   \\  /    A nd           | Website:  www.openfoam.com                      |
|    \\/     M anipulation  |                                                 |
\*---------------------------------------------------------------------------*/
FoamFile
{
    version     2.0;
    format      ascii;
    arch        "LSB;label=32;scalar=64";
    class       volScalarField;
    location    "200";
    object      epsilon;
}
// * * * * * * * * * * * * * * * * * * * * * * * * * * * * * * * * * * * * * //

dimensions      [0 2 -3 0 0 0 0];

internalField   nonuniform List<scalar> 
131949
(
0.427373
0.492058
0.494232
0.487048
0.480332
0.474506
0.469319
0.464725
0.46064
0.456951
0.453572
0.450443
0.447515
0.444753
0.442129
0.439621
0.437212
0.434889
0.432641
0.430459
0.428335
0.426263
0.424238
0.422256
0.420313
0.418406
0.416531
0.414687
0.412872
0.411083
0.409319
0.407579
0.405861
0.404163
0.402486
0.400827
0.399187
0.397563
0.395956
0.394364
0.392788
0.391226
0.389679
0.388144
0.386623
0.385115
0.383619
0.382135
0.380663
0.379203
0.377754
0.376316
0.374888
0.373472
0.372065
0.370669
0.369283
0.367907
0.366541
0.365183
0.363835
0.362497
0.361167
0.359846
0.358533
0.357229
0.355933
0.354645
0.353365
0.352093
0.350829
0.349573
0.348324
0.347082
0.345848
0.344622
0.343402
0.34219
0.340984
0.339786
0.338594
0.33741
0.336232
0.335061
0.333896
0.332738
0.331586
0.330441
0.329302
0.328169
0.327043
0.325922
0.324807
0.323698
0.322595
0.321498
0.320406
0.31932
0.318239
0.317164
0.316094
0.315029
0.31397
0.312916
0.311866
0.310822
0.309783
0.308748
0.307718
0.306693
0.305673
0.304656
0.303645
0.302637
0.301634
0.300634
0.299639
0.298647
0.297659
0.296674
0.295693
0.294715
0.29374
0.292768
0.291798
0.290831
0.289866
0.288903
0.287942
0.286983
0.286025
0.285068
0.284112
0.283156
0.2822
0.281244
0.280288
0.279331
0.278373
0.277413
0.276451
0.275487
0.27452
0.27355
0.272576
0.271599
0.270617
0.26963
0.268638
0.26764
0.266637
0.265627
0.26461
0.263587
0.262556
0.261518
0.260472
0.259418
0.258356
0.257286
0.256209
0.255123
0.25403
0.252929
0.251822
0.250708
0.249588
0.248463
0.247333
0.2462
0.245064
0.243927
0.242789
0.241653
0.24052
0.239392
0.23827
0.237156
0.236052
0.234961
0.233883
0.232823
0.231781
0.230761
0.229763
0.228791
0.227847
0.226933
0.22605
0.225201
0.224387
0.223609
0.222869
0.222167
0.221504
0.22088
0.220295
0.219748
0.219239
0.218766
0.218327
0.217921
0.217545
0.217196
0.216872
0.216568
0.216282
0.216009
0.215746
0.215489
0.215233
0.214975
0.21471
0.214434
0.214143
0.213835
0.213504
0.213148
0.212764
0.212349
0.2119
0.211414
0.210891
0.210328
0.209724
0.209078
0.208389
0.207657
0.20688
0.20606
0.205196
0.204289
0.20334
0.202349
0.201318
0.200247
0.199138
0.197992
0.196812
0.195597
0.194351
0.193075
0.191771
0.19044
0.189085
0.187708
0.18631
0.184894
0.183461
0.182014
0.180555
0.179086
0.177608
0.176124
0.174636
0.173146
0.171656
0.170167
0.168683
0.167204
0.165734
0.164273
0.162823
0.161388
0.159967
0.158564
0.157179
0.155815
0.154473
0.153155
0.151862
0.150595
0.149357
0.148147
0.146967
0.145818
0.144701
0.143617
0.142565
0.141548
0.140564
0.139615
0.1387
0.13782
0.136973
0.136161
0.135382
0.134637
0.133924
0.133243
0.132594
0.131976
0.131387
0.130827
0.130295
0.129791
0.129313
0.12886
0.128431
0.128025
0.127642
0.12728
0.126939
0.126616
0.126312
0.126026
0.125756
0.125502
0.125263
0.125038
0.124826
0.124627
0.124439
0.124263
0.124097
0.123941
0.123795
0.123657
0.123527
0.123405
0.12329
0.123182
0.12308
0.122984
0.122894
0.122809
0.122729
0.122653
0.122582
0.122515
0.122451
0.122391
0.122335
0.122281
0.12223
0.122183
0.122137
0.122094
0.122053
0.122015
0.121978
0.121943
0.12191
0.121879
0.121849
0.12182
0.121793
0.121767
0.121743
0.12172
0.121697
0.121676
0.121656
0.121636
0.121618
0.1216
0.121583
0.121567
0.121552
0.121537
0.121523
0.121509
0.121496
0.121484
0.121472
0.121461
0.12145
0.121439
0.121429
0.12142
0.121411
0.121402
0.121393
0.121385
0.121377
0.12137
0.121363
0.121356
0.121349
0.121343
0.121337
0.121331
0.121326
0.12132
0.121315
0.121311
0.121306
0.121302
0.121297
0.121293
0.12129
0.121286
0.121283
0.121279
0.121276
0.121274
0.121271
0.121267
0.121259
0.121227
0.270384
0.330565
0.375008
0.402575
0.419733
0.430163
0.436051
0.439106
0.440441
0.440696
0.440256
0.439367
0.438183
0.436803
0.435293
0.433696
0.432041
0.43035
0.428635
0.426908
0.425175
0.423443
0.421713
0.41999
0.418276
0.416571
0.414876
0.413193
0.411522
0.409864
0.408217
0.406583
0.404962
0.403353
0.401755
0.40017
0.398597
0.397036
0.395486
0.393947
0.39242
0.390903
0.389397
0.387901
0.386416
0.384942
0.383477
0.382023
0.380578
0.379143
0.377718
0.376302
0.374896
0.373499
0.372111
0.370733
0.369363
0.368002
0.36665
0.365307
0.363972
0.362645
0.361327
0.360017
0.358714
0.35742
0.356133
0.354854
0.353582
0.352318
0.351061
0.349811
0.348569
0.347333
0.346105
0.344884
0.343669
0.342462
0.341261
0.340067
0.338879
0.337699
0.336525
0.335357
0.334195
0.33304
0.331892
0.330749
0.329613
0.328482
0.327358
0.326239
0.325126
0.324019
0.322917
0.321822
0.320731
0.319646
0.318567
0.317492
0.316423
0.315359
0.314301
0.313247
0.312198
0.311154
0.310115
0.309081
0.308051
0.307026
0.306005
0.304989
0.303976
0.302968
0.301964
0.300964
0.299968
0.298976
0.297987
0.297001
0.296019
0.295039
0.294063
0.293089
0.292118
0.291149
0.290182
0.289217
0.288254
0.287292
0.286332
0.285372
0.284413
0.283454
0.282495
0.281536
0.280575
0.279614
0.278652
0.277687
0.276721
0.275751
0.274779
0.273803
0.272823
0.271839
0.270851
0.269857
0.268857
0.267852
0.26684
0.265821
0.264795
0.263762
0.262721
0.261672
0.260615
0.259549
0.258476
0.257393
0.256302
0.255203
0.254096
0.25298
0.251858
0.250728
0.249592
0.24845
0.247303
0.246152
0.244998
0.243842
0.242686
0.241531
0.240379
0.23923
0.238088
0.236955
0.235831
0.234719
0.233622
0.232542
0.23148
0.23044
0.229424
0.228433
0.227471
0.226539
0.225639
0.224774
0.223944
0.223151
0.222396
0.22168
0.221005
0.220369
0.219772
0.219215
0.218696
0.218214
0.217766
0.217352
0.216969
0.216613
0.216281
0.215971
0.215679
0.2154
0.21513
0.214867
0.214604
0.214339
0.214067
0.213784
0.213486
0.21317
0.212831
0.212467
0.212074
0.211649
0.211191
0.210696
0.210162
0.209589
0.208975
0.208318
0.207618
0.206875
0.206088
0.205257
0.204383
0.203466
0.202507
0.201507
0.200466
0.199386
0.198269
0.197115
0.195927
0.194706
0.193454
0.192173
0.190864
0.189529
0.188171
0.186792
0.185392
0.183976
0.182543
0.181098
0.179641
0.178174
0.176701
0.175222
0.17374
0.172257
0.170774
0.169295
0.16782
0.166352
0.164893
0.163445
0.162009
0.160588
0.159182
0.157795
0.156427
0.155081
0.153757
0.152457
0.151184
0.149937
0.148719
0.147529
0.146371
0.145243
0.144148
0.143085
0.142055
0.141059
0.140097
0.139169
0.138276
0.137416
0.13659
0.135798
0.135039
0.134313
0.133619
0.132956
0.132325
0.131723
0.131151
0.130607
0.130091
0.129601
0.129137
0.128697
0.128281
0.127888
0.127516
0.127165
0.126834
0.126522
0.126227
0.12595
0.125688
0.125442
0.12521
0.124992
0.124787
0.124594
0.124412
0.124241
0.12408
0.123929
0.123787
0.123653
0.123527
0.123409
0.123298
0.123193
0.123094
0.123001
0.122913
0.12283
0.122753
0.122679
0.12261
0.122544
0.122483
0.122424
0.122369
0.122317
0.122267
0.122221
0.122176
0.122134
0.122095
0.122057
0.122021
0.121987
0.121955
0.121924
0.121895
0.121867
0.12184
0.121815
0.121791
0.121768
0.121747
0.121726
0.121706
0.121687
0.121669
0.121651
0.121635
0.121619
0.121604
0.121589
0.121575
0.121562
0.121549
0.121537
0.121526
0.121514
0.121504
0.121493
0.121484
0.121474
0.121465
0.121456
0.121448
0.12144
0.121433
0.121425
0.121418
0.121411
0.121405
0.121399
0.121393
0.121387
0.121382
0.121377
0.121372
0.121367
0.121362
0.121358
0.121354
0.12135
0.121346
0.121343
0.121339
0.121336
0.121333
0.121331
0.121328
0.121324
0.121316
0.121285
0.228179
0.258027
0.288813
0.316234
0.339539
0.358657
0.373735
0.385352
0.394201
0.400872
0.405841
0.409488
0.41211
0.413933
0.41513
0.415833
0.416145
0.416144
0.415891
0.415434
0.414812
0.414055
0.413186
0.412226
0.41119
0.410092
0.408941
0.407748
0.406519
0.40526
0.403977
0.402674
0.401355
0.400022
0.398678
0.397326
0.395967
0.394603
0.393236
0.391866
0.390495
0.389124
0.387754
0.386385
0.385017
0.383652
0.38229
0.380932
0.379577
0.378227
0.376881
0.37554
0.374204
0.372873
0.371548
0.370228
0.368914
0.367606
0.366303
0.365007
0.363716
0.362432
0.361153
0.35988
0.358614
0.357353
0.356098
0.35485
0.353607
0.35237
0.35114
0.349915
0.348696
0.347484
0.346277
0.345076
0.343881
0.342692
0.341509
0.340332
0.339161
0.337995
0.336836
0.335682
0.334534
0.333392
0.332255
0.331124
0.329998
0.328878
0.327764
0.326655
0.325551
0.324452
0.323359
0.322271
0.321188
0.32011
0.319037
0.317969
0.316906
0.315848
0.314794
0.313746
0.312702
0.311662
0.310627
0.309597
0.308571
0.307549
0.306532
0.305518
0.304509
0.303503
0.302502
0.301504
0.300509
0.299518
0.298531
0.297546
0.296565
0.295586
0.29461
0.293637
0.292666
0.291697
0.29073
0.289764
0.2888
0.287837
0.286875
0.285914
0.284953
0.283991
0.28303
0.282068
0.281105
0.28014
0.279173
0.278205
0.277234
0.276259
0.275282
0.2743
0.273314
0.272323
0.271327
0.270325
0.269317
0.268303
0.267281
0.266253
0.265216
0.264171
0.263117
0.262055
0.260984
0.259904
0.258814
0.257714
0.256605
0.255487
0.254359
0.253223
0.252077
0.250923
0.249762
0.248593
0.247418
0.246237
0.245052
0.243863
0.242673
0.241482
0.240292
0.239104
0.237921
0.236744
0.235575
0.234417
0.233272
0.232142
0.231029
0.229936
0.228866
0.227819
0.2268
0.22581
0.22485
0.223924
0.223033
0.222179
0.221362
0.220584
0.219846
0.219148
0.21849
0.217872
0.217292
0.216751
0.216246
0.215775
0.215336
0.214927
0.214544
0.214185
0.213846
0.213522
0.213211
0.212907
0.212608
0.212309
0.212005
0.211693
0.211369
0.211029
0.210669
0.210287
0.209878
0.20944
0.208971
0.208468
0.207929
0.207352
0.206736
0.20608
0.205384
0.204645
0.203865
0.203043
0.202179
0.201274
0.200328
0.199343
0.198319
0.197257
0.196159
0.195026
0.193859
0.192661
0.191432
0.190175
0.188892
0.187584
0.186253
0.184902
0.183531
0.182144
0.180742
0.179327
0.177901
0.176467
0.175026
0.17358
0.172131
0.170682
0.169234
0.167789
0.16635
0.164917
0.163494
0.162082
0.160682
0.159297
0.157928
0.156577
0.155246
0.153937
0.15265
0.151387
0.150149
0.148939
0.147756
0.146603
0.145479
0.144387
0.143325
0.142296
0.1413
0.140336
0.139406
0.138509
0.137645
0.136815
0.136017
0.135253
0.13452
0.13382
0.13315
0.132512
0.131903
0.131323
0.130772
0.130248
0.129751
0.129279
0.128832
0.128409
0.128008
0.12763
0.127272
0.126934
0.126615
0.126315
0.126031
0.125764
0.125512
0.125275
0.125052
0.124842
0.124644
0.124458
0.124283
0.124119
0.123964
0.123818
0.123681
0.123552
0.123431
0.123317
0.123209
0.123108
0.123013
0.122923
0.122839
0.122759
0.122684
0.122613
0.122546
0.122482
0.122423
0.122366
0.122313
0.122262
0.122215
0.122169
0.122127
0.122086
0.122047
0.122011
0.121976
0.121943
0.121912
0.121882
0.121854
0.121827
0.121801
0.121777
0.121754
0.121732
0.12171
0.12169
0.121671
0.121653
0.121635
0.121618
0.121602
0.121587
0.121572
0.121558
0.121545
0.121532
0.12152
0.121508
0.121496
0.121486
0.121475
0.121465
0.121456
0.121447
0.121438
0.12143
0.121422
0.121414
0.121407
0.121399
0.121393
0.121386
0.12138
0.121374
0.121368
0.121363
0.121358
0.121353
0.121348
0.121343
0.121339
0.121335
0.121331
0.121327
0.121324
0.121321
0.121317
0.121314
0.121312
0.121309
0.121306
0.121303
0.121295
0.121264
0.214642
0.227086
0.242386
0.259343
0.276805
0.29381
0.309593
0.323741
0.336144
0.346847
0.355972
0.363682
0.370152
0.375548
0.380023
0.38371
0.386726
0.389167
0.39112
0.392655
0.393831
0.394699
0.395303
0.395679
0.395857
0.395863
0.39572
0.395448
0.395062
0.394576
0.394004
0.393354
0.392638
0.391862
0.391034
0.390159
0.389244
0.388292
0.387308
0.386295
0.385258
0.384198
0.383119
0.382023
0.380911
0.379786
0.37865
0.377504
0.376349
0.375187
0.374019
0.372845
0.371667
0.370486
0.369303
0.368117
0.36693
0.365742
0.364554
0.363366
0.362179
0.360992
0.359807
0.358623
0.357441
0.356261
0.355083
0.353908
0.352735
0.351565
0.350398
0.349234
0.348073
0.346916
0.345762
0.344612
0.343466
0.342323
0.341185
0.34005
0.33892
0.337794
0.336672
0.335554
0.334441
0.333332
0.332227
0.331127
0.33003
0.328939
0.327851
0.326768
0.325689
0.324614
0.323544
0.322478
0.321416
0.320358
0.319305
0.318256
0.317211
0.31617
0.315133
0.3141
0.313071
0.312047
0.311026
0.310009
0.308996
0.307986
0.306981
0.305979
0.30498
0.303985
0.302993
0.302005
0.301019
0.300037
0.299057
0.298081
0.297106
0.296135
0.295165
0.294198
0.293232
0.292269
0.291306
0.290345
0.289385
0.288426
0.287467
0.286509
0.28555
0.284591
0.283632
0.282671
0.281709
0.280744
0.279778
0.278809
0.277837
0.276861
0.275881
0.274897
0.273908
0.272914
0.271914
0.270907
0.269893
0.268873
0.267844
0.266807
0.265762
0.264707
0.263643
0.26257
0.261486
0.260391
0.259286
0.258171
0.257044
0.255907
0.254758
0.253599
0.25243
0.25125
0.25006
0.248862
0.247655
0.24644
0.245218
0.243991
0.242759
0.241524
0.240287
0.23905
0.237815
0.236583
0.235356
0.234137
0.232928
0.231731
0.230548
0.229382
0.228235
0.22711
0.22601
0.224935
0.22389
0.222875
0.221893
0.220946
0.220036
0.219163
0.218329
0.217534
0.216779
0.216064
0.215389
0.214752
0.214153
0.21359
0.213061
0.212564
0.212097
0.211655
0.211237
0.210839
0.210457
0.210086
0.209725
0.209367
0.20901
0.208649
0.208281
0.207902
0.207507
0.207095
0.206661
0.206203
0.205717
0.205202
0.204656
0.204076
0.20346
0.202809
0.20212
0.201393
0.200628
0.199824
0.198981
0.1981
0.197181
0.196225
0.195232
0.194204
0.193142
0.192046
0.190919
0.189762
0.188576
0.187363
0.186125
0.184863
0.18358
0.182277
0.180955
0.179618
0.178267
0.176903
0.175529
0.174147
0.172759
0.171366
0.16997
0.168575
0.16718
0.165789
0.164403
0.163025
0.161655
0.160296
0.158949
0.157617
0.156301
0.155003
0.153723
0.152465
0.151229
0.150016
0.148828
0.147666
0.146532
0.145425
0.144348
0.1433
0.142283
0.141297
0.140342
0.139419
0.138529
0.13767
0.136843
0.136049
0.135286
0.134554
0.133854
0.133184
0.132544
0.131933
0.131351
0.130797
0.13027
0.129769
0.129293
0.128843
0.128415
0.128011
0.127628
0.127266
0.126924
0.126601
0.126296
0.126008
0.125737
0.125481
0.12524
0.125014
0.1248
0.124599
0.12441
0.124232
0.124064
0.123906
0.123758
0.123619
0.123487
0.123364
0.123247
0.123138
0.123035
0.122938
0.122846
0.12276
0.122679
0.122602
0.12253
0.122462
0.122398
0.122337
0.122279
0.122225
0.122174
0.122126
0.12208
0.122036
0.121995
0.121956
0.121919
0.121884
0.121851
0.121819
0.121789
0.12176
0.121733
0.121707
0.121683
0.121659
0.121637
0.121615
0.121595
0.121576
0.121557
0.12154
0.121523
0.121507
0.121491
0.121477
0.121463
0.121449
0.121436
0.121424
0.121412
0.121401
0.12139
0.12138
0.12137
0.121361
0.121352
0.121343
0.121335
0.121327
0.121319
0.121312
0.121305
0.121298
0.121292
0.121286
0.12128
0.121274
0.121269
0.121264
0.121259
0.121254
0.12125
0.121245
0.121241
0.121238
0.121234
0.12123
0.121227
0.121224
0.121221
0.121219
0.121216
0.121214
0.121211
0.121208
0.1212
0.12117
0.210105
0.215482
0.222499
0.231129
0.241102
0.252014
0.263384
0.274765
0.285819
0.296309
0.306085
0.315067
0.323228
0.330579
0.337155
0.343004
0.348181
0.352743
0.356747
0.360246
0.36329
0.365926
0.368195
0.370136
0.371783
0.373165
0.37431
0.375243
0.375985
0.376554
0.376969
0.377245
0.377394
0.37743
0.377363
0.377203
0.376958
0.376637
0.376246
0.375792
0.37528
0.374716
0.374105
0.37345
0.372755
0.372024
0.371261
0.370468
0.369648
0.368803
0.367935
0.367048
0.366141
0.365218
0.36428
0.363328
0.362363
0.361387
0.360401
0.359406
0.358402
0.357391
0.356373
0.35535
0.354321
0.353287
0.352249
0.351208
0.350164
0.349117
0.348068
0.347017
0.345964
0.344911
0.343857
0.342803
0.341749
0.340695
0.339642
0.338589
0.337538
0.336487
0.335438
0.334391
0.333345
0.332301
0.331259
0.330218
0.32918
0.328145
0.327111
0.32608
0.325051
0.324025
0.323002
0.321981
0.320962
0.319946
0.318934
0.317923
0.316916
0.315911
0.31491
0.313911
0.312915
0.311922
0.310932
0.309944
0.30896
0.307978
0.306999
0.306022
0.305049
0.304077
0.303109
0.302143
0.301179
0.300217
0.299257
0.2983
0.297344
0.29639
0.295438
0.294487
0.293538
0.292589
0.291641
0.290694
0.289748
0.288801
0.287855
0.286908
0.28596
0.285012
0.284062
0.283111
0.282157
0.281201
0.280242
0.27928
0.278315
0.277345
0.27637
0.275391
0.274406
0.273414
0.272417
0.271412
0.270399
0.269379
0.268349
0.267311
0.266263
0.265205
0.264137
0.263057
0.261966
0.260864
0.259749
0.258623
0.257484
0.256332
0.255168
0.253991
0.252801
0.2516
0.250386
0.249161
0.247925
0.246678
0.245422
0.244157
0.242885
0.241606
0.240322
0.239035
0.237745
0.236456
0.235168
0.233884
0.232605
0.231335
0.230075
0.228828
0.227596
0.226383
0.225189
0.224018
0.222873
0.221755
0.220667
0.219611
0.218589
0.217602
0.216653
0.215741
0.214868
0.214035
0.213241
0.212487
0.211771
0.211092
0.21045
0.209843
0.209267
0.208722
0.208203
0.207708
0.207234
0.206778
0.206334
0.2059
0.205473
0.205047
0.20462
0.204188
0.203747
0.203293
0.202824
0.202337
0.201828
0.201295
0.200736
0.200149
0.199532
0.198884
0.198203
0.197489
0.196741
0.195958
0.19514
0.194288
0.193401
0.19248
0.191526
0.19054
0.189522
0.188473
0.187395
0.186288
0.185156
0.183997
0.182816
0.181612
0.180388
0.179145
0.177885
0.176611
0.175322
0.174023
0.172714
0.171397
0.170074
0.168746
0.167417
0.166087
0.164759
0.163434
0.162114
0.160801
0.159497
0.158203
0.156922
0.155654
0.154401
0.153166
0.151949
0.150752
0.149576
0.148423
0.147294
0.146189
0.145111
0.144059
0.143036
0.14204
0.141074
0.140138
0.139231
0.138355
0.137509
0.136694
0.135909
0.135154
0.13443
0.133736
0.133071
0.132435
0.131827
0.131247
0.130695
0.130168
0.129668
0.129192
0.12874
0.128312
0.127906
0.127521
0.127158
0.126813
0.126488
0.126181
0.125891
0.125617
0.125359
0.125116
0.124887
0.124671
0.124467
0.124276
0.124095
0.123926
0.123766
0.123616
0.123474
0.123341
0.123216
0.123098
0.122987
0.122882
0.122784
0.122691
0.122604
0.122521
0.122444
0.122371
0.122302
0.122237
0.122175
0.122117
0.122062
0.12201
0.121961
0.121915
0.121871
0.12183
0.12179
0.121753
0.121718
0.121684
0.121652
0.121622
0.121593
0.121566
0.12154
0.121515
0.121492
0.12147
0.121448
0.121428
0.121409
0.12139
0.121373
0.121356
0.12134
0.121325
0.12131
0.121296
0.121283
0.12127
0.121258
0.121246
0.121235
0.121225
0.121214
0.121205
0.121195
0.121186
0.121178
0.12117
0.121162
0.121155
0.121147
0.121141
0.121134
0.121128
0.121122
0.121116
0.121111
0.121106
0.121101
0.121096
0.121091
0.121087
0.121083
0.121079
0.121075
0.121072
0.121069
0.121066
0.121063
0.12106
0.121057
0.121055
0.121053
0.121051
0.121049
0.121046
0.121038
0.121008
0.208359
0.210901
0.214192
0.218356
0.223449
0.229437
0.23619
0.243522
0.251228
0.259115
0.267011
0.274771
0.282285
0.289471
0.296275
0.302662
0.308618
0.314137
0.319228
0.323902
0.328178
0.332075
0.335616
0.338823
0.341719
0.344324
0.34666
0.348747
0.350604
0.352247
0.353694
0.354959
0.356056
0.356998
0.357798
0.358466
0.359011
0.359444
0.359773
0.360005
0.360149
0.36021
0.360194
0.360108
0.359957
0.359744
0.359476
0.359156
0.358787
0.358374
0.357919
0.357426
0.356897
0.356336
0.355743
0.355122
0.354475
0.353803
0.353109
0.352393
0.351657
0.350904
0.350133
0.349346
0.348545
0.34773
0.346903
0.346064
0.345214
0.344354
0.343485
0.342608
0.341723
0.34083
0.339931
0.339026
0.338116
0.337201
0.336282
0.335358
0.334431
0.333501
0.332568
0.331633
0.330696
0.329756
0.328815
0.327873
0.32693
0.325985
0.32504
0.324095
0.323149
0.322203
0.321257
0.320311
0.319365
0.31842
0.317475
0.31653
0.315587
0.314644
0.313703
0.312762
0.311822
0.310884
0.309946
0.30901
0.308075
0.307142
0.306209
0.305278
0.304349
0.30342
0.302493
0.301567
0.300642
0.299718
0.298795
0.297873
0.296951
0.296031
0.295111
0.294191
0.293272
0.292353
0.291433
0.290514
0.289594
0.288673
0.287752
0.286829
0.285905
0.284979
0.284051
0.28312
0.282187
0.281251
0.28031
0.279366
0.278418
0.277465
0.276506
0.275541
0.274571
0.273593
0.272608
0.271615
0.270613
0.269603
0.268583
0.267553
0.266512
0.26546
0.264397
0.263321
0.262233
0.261132
0.260017
0.258889
0.257747
0.25659
0.255419
0.254233
0.253033
0.251819
0.250589
0.249346
0.24809
0.24682
0.245537
0.244242
0.242937
0.241622
0.240298
0.238966
0.237629
0.236287
0.234943
0.233598
0.232254
0.230914
0.22958
0.228254
0.226938
0.225636
0.22435
0.223082
0.221834
0.220611
0.219413
0.218244
0.217105
0.215998
0.214926
0.21389
0.212891
0.21193
0.211008
0.210125
0.209282
0.208477
0.207709
0.206979
0.206283
0.20562
0.204989
0.204385
0.203807
0.20325
0.202713
0.202192
0.201682
0.201181
0.200684
0.200189
0.199691
0.199188
0.198676
0.198152
0.197613
0.197056
0.19648
0.195881
0.195259
0.19461
0.193935
0.193231
0.192498
0.191736
0.190943
0.19012
0.189266
0.188383
0.187469
0.186526
0.185555
0.184556
0.183531
0.182479
0.181404
0.180305
0.179185
0.178045
0.176885
0.175709
0.174517
0.17331
0.172092
0.170863
0.169625
0.16838
0.167129
0.165875
0.164618
0.163362
0.162107
0.160855
0.159608
0.158368
0.157136
0.155915
0.154704
0.153507
0.152325
0.151159
0.15001
0.148881
0.147771
0.146683
0.145618
0.144576
0.143559
0.142567
0.141601
0.140663
0.139752
0.138868
0.138014
0.137187
0.136389
0.135621
0.13488
0.134169
0.133486
0.13283
0.132203
0.131603
0.131029
0.130482
0.12996
0.129463
0.12899
0.128541
0.128114
0.127709
0.127325
0.126962
0.126617
0.126292
0.125984
0.125693
0.125418
0.125159
0.124914
0.124684
0.124466
0.124262
0.124069
0.123887
0.123716
0.123554
0.123403
0.12326
0.123125
0.122999
0.12288
0.122768
0.122662
0.122563
0.122469
0.122381
0.122297
0.122219
0.122145
0.122076
0.12201
0.121948
0.121889
0.121834
0.121782
0.121732
0.121686
0.121642
0.1216
0.12156
0.121523
0.121487
0.121454
0.121422
0.121392
0.121363
0.121336
0.12131
0.121285
0.121262
0.121239
0.121218
0.121198
0.121179
0.12116
0.121143
0.121126
0.12111
0.121095
0.121081
0.121067
0.121054
0.121041
0.12103
0.121018
0.121007
0.120997
0.120987
0.120977
0.120968
0.120959
0.120951
0.120943
0.120936
0.120928
0.120922
0.120915
0.120909
0.120903
0.120897
0.120891
0.120886
0.120881
0.120877
0.120872
0.120868
0.120864
0.12086
0.120856
0.120853
0.120849
0.120846
0.120843
0.120841
0.120838
0.120836
0.120834
0.120831
0.12083
0.120828
0.120826
0.120824
0.120816
0.120787
0.207573
0.208877
0.210514
0.212559
0.215093
0.218173
0.221812
0.225981
0.230623
0.23566
0.241
0.246551
0.252222
0.25793
0.263604
0.269183
0.274619
0.279872
0.284916
0.289729
0.2943
0.298621
0.302689
0.306506
0.310077
0.313406
0.316502
0.319375
0.322032
0.324484
0.326741
0.328813
0.330709
0.33244
0.334014
0.335441
0.336728
0.337884
0.338917
0.339834
0.340642
0.341347
0.341956
0.342474
0.342907
0.34326
0.343538
0.343745
0.343886
0.343965
0.343985
0.343951
0.343865
0.34373
0.34355
0.343328
0.343064
0.342763
0.342427
0.342057
0.341655
0.341223
0.340764
0.340278
0.339767
0.339233
0.338676
0.338099
0.337503
0.336887
0.336255
0.335606
0.334942
0.334264
0.333572
0.332868
0.332152
0.331425
0.330687
0.32994
0.329184
0.328419
0.327646
0.326866
0.326079
0.325286
0.324486
0.323681
0.322871
0.322055
0.321236
0.320412
0.319584
0.318752
0.317917
0.317079
0.316238
0.315394
0.314548
0.313699
0.312849
0.311997
0.311143
0.310288
0.309432
0.308574
0.307715
0.306855
0.305995
0.305133
0.304271
0.303409
0.302545
0.301681
0.300817
0.299952
0.299087
0.298221
0.297354
0.296487
0.295619
0.29475
0.293881
0.29301
0.292139
0.291266
0.290392
0.289517
0.28864
0.287761
0.28688
0.285997
0.285111
0.284223
0.283331
0.282436
0.281537
0.280634
0.279727
0.278814
0.277896
0.276973
0.276043
0.275107
0.274163
0.273212
0.272252
0.271283
0.270306
0.269318
0.268319
0.26731
0.266289
0.265256
0.26421
0.263151
0.262078
0.26099
0.259888
0.258771
0.257638
0.256489
0.255323
0.254142
0.252943
0.251728
0.250496
0.249248
0.247983
0.246702
0.245405
0.244093
0.242767
0.241428
0.240076
0.238712
0.237339
0.235957
0.234567
0.233173
0.231775
0.230376
0.228977
0.227582
0.226193
0.224811
0.22344
0.222083
0.220742
0.219419
0.218118
0.216841
0.21559
0.214368
0.213177
0.212019
0.210896
0.209809
0.20876
0.207749
0.206777
0.205844
0.204949
0.204093
0.203274
0.202491
0.201742
0.201025
0.200337
0.199677
0.199041
0.198426
0.197829
0.197246
0.196674
0.196111
0.195551
0.194993
0.194432
0.193867
0.193293
0.192708
0.192109
0.191495
0.190863
0.190211
0.189537
0.188841
0.188121
0.187377
0.186607
0.185811
0.184989
0.184141
0.183267
0.182367
0.181442
0.180493
0.17952
0.178524
0.177507
0.176468
0.17541
0.174334
0.173241
0.172132
0.171009
0.169874
0.168727
0.16757
0.166406
0.165235
0.164059
0.16288
0.1617
0.160519
0.15934
0.158165
0.156994
0.155829
0.154673
0.153526
0.15239
0.151267
0.150157
0.149063
0.147986
0.146926
0.145885
0.144865
0.143866
0.142889
0.141935
0.141005
0.140099
0.139219
0.138364
0.137536
0.136734
0.135959
0.135211
0.134489
0.133795
0.133127
0.132485
0.13187
0.131281
0.130717
0.130178
0.129664
0.129173
0.128706
0.128261
0.127838
0.127437
0.127055
0.126694
0.126351
0.126026
0.125719
0.125429
0.125154
0.124895
0.12465
0.124419
0.124201
0.123995
0.123802
0.123619
0.123447
0.123285
0.123132
0.122988
0.122853
0.122726
0.122605
0.122492
0.122386
0.122286
0.122191
0.122102
0.122019
0.12194
0.121865
0.121795
0.121729
0.121666
0.121607
0.121552
0.121499
0.12145
0.121403
0.121358
0.121316
0.121277
0.121239
0.121204
0.12117
0.121138
0.121108
0.121079
0.121052
0.121026
0.121001
0.120978
0.120956
0.120935
0.120915
0.120896
0.120878
0.12086
0.120844
0.120828
0.120813
0.120799
0.120786
0.120773
0.12076
0.120749
0.120737
0.120727
0.120717
0.120707
0.120698
0.120689
0.12068
0.120672
0.120664
0.120657
0.12065
0.120644
0.120637
0.120631
0.120625
0.12062
0.120615
0.12061
0.120605
0.1206
0.120596
0.120592
0.120588
0.120585
0.120581
0.120578
0.120575
0.120572
0.120569
0.120567
0.120565
0.120562
0.12056
0.120559
0.120557
0.120555
0.120554
0.120553
0.12055
0.120544
0.120515
0.207162
0.207856
0.208707
0.209748
0.211024
0.212584
0.214464
0.216687
0.219255
0.22216
0.225378
0.228876
0.232611
0.236537
0.240608
0.244778
0.249001
0.253239
0.257455
0.26162
0.265707
0.269694
0.273564
0.277304
0.280904
0.284356
0.287655
0.290799
0.293788
0.29662
0.299299
0.301827
0.304206
0.306441
0.308536
0.310496
0.312325
0.314028
0.31561
0.317076
0.318431
0.319679
0.320826
0.321876
0.322833
0.323701
0.324486
0.325191
0.325819
0.326375
0.326862
0.327283
0.327642
0.327943
0.328186
0.328377
0.328516
0.328608
0.328653
0.328655
0.328615
0.328536
0.328419
0.328267
0.32808
0.327861
0.327612
0.327333
0.327026
0.326693
0.326335
0.325953
0.325548
0.325122
0.324676
0.32421
0.323725
0.323224
0.322705
0.322172
0.321623
0.32106
0.320484
0.319895
0.319294
0.318681
0.318058
0.317424
0.31678
0.316128
0.315466
0.314796
0.314117
0.313432
0.312739
0.312039
0.311332
0.31062
0.309902
0.309178
0.308449
0.307715
0.306977
0.306234
0.305487
0.304736
0.303981
0.303223
0.302461
0.301696
0.300928
0.300157
0.299383
0.298607
0.297827
0.297046
0.296261
0.295474
0.294685
0.293893
0.293098
0.292301
0.291501
0.290699
0.289894
0.289087
0.288276
0.287463
0.286646
0.285827
0.285003
0.284177
0.283346
0.282511
0.281672
0.280828
0.279979
0.279125
0.278265
0.2774
0.276528
0.275649
0.274763
0.273869
0.272967
0.272056
0.271136
0.270206
0.269266
0.268315
0.267352
0.266378
0.265391
0.26439
0.263376
0.262347
0.261303
0.260243
0.259168
0.258076
0.256966
0.255839
0.254694
0.253531
0.252349
0.251148
0.249929
0.24869
0.247432
0.246156
0.244861
0.243547
0.242216
0.240868
0.239504
0.238124
0.236731
0.235324
0.233906
0.232478
0.231041
0.229599
0.228152
0.226703
0.225255
0.223809
0.222369
0.220937
0.219516
0.218109
0.216718
0.215346
0.213996
0.212671
0.211373
0.210105
0.208868
0.207665
0.206498
0.205367
0.204274
0.20322
0.202205
0.201229
0.200292
0.199392
0.19853
0.197702
0.196908
0.196145
0.195411
0.194703
0.194019
0.193355
0.192708
0.192075
0.191452
0.190837
0.190227
0.189618
0.189006
0.188391
0.187768
0.187136
0.186492
0.185834
0.18516
0.184469
0.183759
0.18303
0.182281
0.18151
0.180717
0.179903
0.179066
0.178208
0.177328
0.176426
0.175504
0.174562
0.173601
0.172622
0.171625
0.170612
0.169584
0.168542
0.167487
0.166421
0.165345
0.164261
0.16317
0.162073
0.160971
0.159867
0.158762
0.157658
0.156554
0.155455
0.15436
0.153271
0.15219
0.151118
0.150056
0.149007
0.14797
0.146948
0.145941
0.144951
0.143979
0.143026
0.142093
0.141181
0.14029
0.139421
0.138576
0.137754
0.136955
0.136182
0.135432
0.134708
0.134009
0.133334
0.132685
0.13206
0.13146
0.130885
0.130333
0.129805
0.1293
0.128818
0.128359
0.12792
0.127503
0.127106
0.126729
0.126371
0.126031
0.125709
0.125403
0.125114
0.124841
0.124582
0.124338
0.124107
0.123889
0.123683
0.123489
0.123306
0.123134
0.122971
0.122818
0.122673
0.122537
0.122409
0.122288
0.122175
0.122067
0.121967
0.121871
0.121782
0.121698
0.121618
0.121543
0.121472
0.121406
0.121343
0.121284
0.121228
0.121175
0.121125
0.121078
0.121033
0.120991
0.120951
0.120914
0.120878
0.120844
0.120812
0.120782
0.120753
0.120726
0.1207
0.120676
0.120653
0.12063
0.12061
0.12059
0.120571
0.120553
0.120536
0.120519
0.120504
0.120489
0.120475
0.120462
0.120449
0.120437
0.120426
0.120415
0.120404
0.120394
0.120385
0.120376
0.120367
0.120359
0.120351
0.120344
0.120337
0.12033
0.120323
0.120317
0.120311
0.120306
0.120301
0.120296
0.120291
0.120287
0.120282
0.120278
0.120274
0.120271
0.120267
0.120264
0.120261
0.120258
0.120256
0.120253
0.120251
0.120249
0.120247
0.120245
0.120244
0.120242
0.120241
0.12024
0.120239
0.120237
0.120236
0.120229
0.120201
0.206918
0.207272
0.207708
0.208237
0.208881
0.209666
0.210619
0.211762
0.213113
0.214684
0.216481
0.2185
0.220733
0.223167
0.225782
0.228556
0.231464
0.234482
0.237584
0.240746
0.243943
0.247154
0.250359
0.253541
0.256684
0.259774
0.262801
0.265754
0.268625
0.271409
0.274101
0.276696
0.279192
0.281587
0.283881
0.286073
0.288163
0.290153
0.292044
0.293836
0.295534
0.297137
0.298649
0.300073
0.30141
0.302663
0.303835
0.30493
0.305948
0.306894
0.307769
0.308577
0.30932
0.31
0.31062
0.311182
0.311688
0.312142
0.312544
0.312896
0.313202
0.313462
0.313678
0.313853
0.313987
0.314083
0.314142
0.314166
0.314156
0.314113
0.314039