/*--------------------------------*- C++ -*----------------------------------*\
| =========                 |                                                 |
| \\      /  F ield         | OpenFOAM: The Open Source CFD Toolbox           |
|  \\    /   O peration     | Version:  2506                                  |
|   \\  /    A nd           | Website:  www.openfoam.com                      |
|    \\/     M anipulation  |                                                 |
\*---------------------------------------------------------------------------*/
FoamFile
{
    version     2.0;
    format      ascii;
    arch        "LSB;label=32;scalar=64";
    class       volScalarField;
    location    "200";
    object      k;
}
// * * * * * * * * * * * * * * * * * * * * * * * * * * * * * * * * * * * * * //

dimensions      [0 2 -2 0 0 0 0];

internalField   nonuniform List<scalar> 
131949
(
0.559551
0.610603
0.612353
0.607625
0.60372
0.600627
0.597992
0.595727
0.593753
0.591986
0.590371
0.588868
0.587452
0.586104
0.584809
0.583556
0.582339
0.581151
0.579987
0.578843
0.577717
0.576606
0.575508
0.574423
0.573348
0.572282
0.571225
0.570176
0.569134
0.568099
0.56707
0.566047
0.56503
0.564017
0.56301
0.562007
0.561008
0.560013
0.559023
0.558036
0.557053
0.556073
0.555097
0.554125
0.553156
0.55219
0.551228
0.550269
0.549314
0.548361
0.547413
0.546467
0.545525
0.544586
0.54365
0.542717
0.541788
0.540862
0.539938
0.539018
0.538101
0.537186
0.536274
0.535365
0.534459
0.533556
0.532655
0.531757
0.530862
0.529969
0.529079
0.528192
0.527307
0.526425
0.525546
0.524669
0.523795
0.522924
0.522055
0.521189
0.520325
0.519464
0.518606
0.51775
0.516896
0.516045
0.515196
0.514349
0.513505
0.512662
0.511822
0.510984
0.510149
0.509315
0.508483
0.507653
0.506825
0.505999
0.505175
0.504352
0.503531
0.502712
0.501894
0.501078
0.500263
0.49945
0.498637
0.497826
0.497016
0.496206
0.495397
0.494588
0.49378
0.492972
0.492163
0.491354
0.490545
0.489734
0.488923
0.488109
0.487294
0.486477
0.485656
0.484833
0.484006
0.483175
0.482339
0.481498
0.480651
0.479798
0.478937
0.478069
0.477191
0.476305
0.475408
0.4745
0.47358
0.472647
0.4717
0.470738
0.46976
0.468766
0.467754
0.466723
0.465673
0.464602
0.46351
0.462396
0.461259
0.460097
0.458912
0.457702
0.456466
0.455204
0.453917
0.452603
0.451263
0.449897
0.448505
0.447088
0.445646
0.44418
0.442692
0.441182
0.439651
0.438102
0.436536
0.434955
0.433361
0.431757
0.430145
0.428528
0.426909
0.425291
0.423677
0.422072
0.420477
0.418898
0.417337
0.415799
0.414287
0.412805
0.411356
0.409944
0.408573
0.407246
0.405965
0.404734
0.403554
0.402428
0.401357
0.400341
0.399383
0.398481
0.397635
0.396843
0.396105
0.395418
0.394778
0.394183
0.393628
0.39311
0.392622
0.392161
0.39172
0.391295
0.390878
0.390464
0.390048
0.389623
0.389183
0.388723
0.388238
0.387723
0.387173
0.386583
0.385951
0.385273
0.384546
0.383768
0.382937
0.382052
0.381111
0.380115
0.379063
0.377956
0.376794
0.375579
0.374313
0.372997
0.371633
0.370224
0.368772
0.36728
0.365751
0.364188
0.362595
0.360973
0.359328
0.357661
0.355977
0.354279
0.35257
0.350854
0.349133
0.347413
0.345694
0.343982
0.342278
0.340587
0.33891
0.337251
0.335612
0.333997
0.332406
0.330844
0.329312
0.327812
0.326346
0.324915
0.323523
0.322169
0.320855
0.319582
0.318352
0.317164
0.31602
0.31492
0.313864
0.312851
0.311883
0.310958
0.310077
0.309238
0.30844
0.307684
0.306967
0.306289
0.305649
0.305044
0.304475
0.303939
0.303436
0.302963
0.302519
0.302102
0.301712
0.301347
0.301004
0.300684
0.300384
0.300104
0.299841
0.299595
0.299365
0.299149
0.298946
0.298756
0.298578
0.298411
0.298253
0.298105
0.297965
0.297833
0.297709
0.297591
0.29748
0.297374
0.297274
0.297179
0.297088
0.297002
0.29692
0.296842
0.296767
0.296696
0.296628
0.296563
0.296501
0.296441
0.296383
0.296329
0.296276
0.296225
0.296177
0.29613
0.296085
0.296042
0.296001
0.295961
0.295923
0.295886
0.295851
0.295817
0.295784
0.295753
0.295722
0.295693
0.295665
0.295639
0.295613
0.295588
0.295564
0.295541
0.295519
0.295497
0.295477
0.295457
0.295439
0.29542
0.295403
0.295386
0.29537
0.295355
0.29534
0.295326
0.295312
0.295299
0.295286
0.295274
0.295262
0.295251
0.29524
0.29523
0.29522
0.295211
0.295202
0.295193
0.295185
0.295177
0.295169
0.295162
0.295155
0.295149
0.295142
0.295136
0.295131
0.295125
0.29512
0.295115
0.295111
0.295106
0.295102
0.295098
0.295095
0.295091
0.295088
0.295085
0.295083
0.29508
0.295078
0.295076
0.295075
0.295073
0.295072
0.295071
0.29507
0.295067
0.295058
0.29502
0.437505
0.493306
0.531798
0.554316
0.567776
0.57577
0.580262
0.582674
0.583876
0.584342
0.584339
0.584035
0.583531
0.582891
0.582156
0.581354
0.580503
0.579616
0.578703
0.57777
0.576822
0.575864
0.574897
0.573924
0.572947
0.571968
0.570986
0.570003
0.56902
0.568037
0.567054
0.566073
0.565092
0.564113
0.563135
0.562159
0.561185
0.560212
0.559241
0.558273
0.557306
0.556342
0.555379
0.554419
0.553462
0.552507
0.551554
0.550604
0.549656
0.548712
0.54777
0.54683
0.545894
0.54496
0.544029
0.543101
0.542176
0.541253
0.540333
0.539416
0.538501
0.537589
0.53668
0.535773
0.534869
0.533967
0.533068
0.532171
0.531277
0.530386
0.529497
0.52861
0.527726
0.526845
0.525966
0.52509
0.524216
0.523345
0.522476
0.52161
0.520746
0.519885
0.519026
0.51817
0.517316
0.516464
0.515615
0.514768
0.513923
0.51308
0.512239
0.511401
0.510564
0.50973
0.508897
0.508066
0.507237
0.50641
0.505585
0.504761
0.503939
0.503119
0.5023
0.501483
0.500666
0.499851
0.499038
0.498225
0.497413
0.496602
0.495791
0.49498
0.49417
0.49336
0.492549
0.491738
0.490926
0.490114
0.489299
0.488483
0.487665
0.486845
0.486021
0.485195
0.484364
0.483529
0.482689
0.481844
0.480993
0.480135
0.479269
0.478396
0.477513
0.47662
0.475717
0.474802
0.473875
0.472935
0.47198
0.47101
0.470024
0.46902
0.467999
0.466958
0.465897
0.464815
0.463712
0.462585
0.461435
0.460261
0.459061
0.457837
0.456586
0.455309
0.454006
0.452675
0.451318
0.449935
0.448525
0.44709
0.445629
0.444144
0.442636
0.441105
0.439554
0.437984
0.436397
0.434795
0.433179
0.431553
0.42992
0.428281
0.42664
0.425
0.423364
0.421737
0.420121
0.41852
0.416938
0.415379
0.413847
0.412345
0.410877
0.409447
0.408058
0.406714
0.405416
0.404169
0.402975
0.401834
0.40075
0.399722
0.398752
0.397839
0.396983
0.396182
0.395435
0.39474
0.394093
0.393491
0.392929
0.392405
0.391911
0.391445
0.390998
0.390567
0.390145
0.389726
0.389303
0.388872
0.388426
0.38796
0.387469
0.386947
0.386389
0.385793
0.385154
0.384468
0.383733
0.382948
0.382109
0.381216
0.380268
0.379265
0.378206
0.377092
0.375924
0.374704
0.373433
0.372112
0.370745
0.369333
0.367879
0.366385
0.364856
0.363293
0.361701
0.360082
0.35844
0.356777
0.355099
0.353407
0.351706
0.349998
0.348288
0.346577
0.344871
0.343171
0.341481
0.339805
0.338143
0.336501
0.33488
0.333282
0.331711
0.330169
0.328657
0.327178
0.325734
0.324325
0.322955
0.321624
0.320333
0.319084
0.317877
0.316713
0.315592
0.314515
0.313481
0.312491
0.311545
0.310642
0.309782
0.308963
0.308186
0.307449
0.306751
0.306091
0.305468
0.30488
0.304326
0.303805
0.303316
0.302856
0.302424
0.30202
0.30164
0.301285
0.300952
0.300641
0.300349
0.300076
0.29982
0.29958
0.299356
0.299145
0.298948
0.298763
0.298589
0.298425
0.298271
0.298126
0.297989
0.297859
0.297737
0.297622
0.297512
0.297409
0.29731
0.297217
0.297128
0.297043
0.296962
0.296885
0.296811
0.296741
0.296674
0.29661
0.296548
0.296489
0.296432
0.296378
0.296326
0.296276
0.296228
0.296182
0.296138
0.296095
0.296054
0.296015
0.295977
0.295941
0.295906
0.295872
0.29584
0.295809
0.295779
0.29575
0.295723
0.295696
0.295671
0.295646
0.295622
0.2956
0.295578
0.295557
0.295537
0.295517
0.295498
0.295481
0.295463
0.295447
0.295431
0.295416
0.295401
0.295387
0.295373
0.29536
0.295348
0.295336
0.295324
0.295313
0.295303
0.295293
0.295283
0.295274
0.295265
0.295256
0.295248
0.29524
0.295233
0.295225
0.295219
0.295212
0.295206
0.2952
0.295194
0.295189
0.295184
0.295179
0.295175
0.29517
0.295166
0.295163
0.295159
0.295156
0.295153
0.29515
0.295147
0.295145
0.295143
0.295141
0.295139
0.295138
0.295137
0.295136
0.295135
0.295132
0.295123
0.295085
0.398944
0.430834
0.461651
0.487578
0.508576
0.525114
0.537712
0.547153
0.554198
0.55944
0.563323
0.56618
0.568261
0.569749
0.570778
0.57145
0.57184
0.572006
0.571992
0.571832
0.571553
0.571175
0.570717
0.570191
0.569608
0.568978
0.568307
0.567602
0.566868
0.566109
0.565329
0.56453
0.563715
0.562886
0.562046
0.561195
0.560335
0.559468
0.558594
0.557714
0.556829
0.555941
0.555048
0.554153
0.553256
0.552356
0.551456
0.550554
0.549652
0.548749
0.547846
0.546944
0.546042
0.54514
0.54424
0.54334
0.542441
0.541543
0.540647
0.539752
0.538858
0.537965
0.537074
0.536185
0.535297
0.53441
0.533526
0.532643
0.531761
0.530882
0.530004
0.529129
0.528255
0.527383
0.526513
0.525646
0.52478
0.523917
0.523055
0.522196
0.521339
0.520484
0.519631
0.51878
0.517931
0.517084
0.516239
0.515396
0.514555
0.513716
0.512879
0.512043
0.51121
0.510378
0.509548
0.508719
0.507893
0.507068
0.506244
0.505422
0.504602
0.503782
0.502965
0.502148
0.501333
0.500519
0.499705
0.498893
0.498081
0.49727
0.496459
0.495648
0.494838
0.494027
0.493215
0.492404
0.491591
0.490776
0.489961
0.489143
0.488323
0.487501
0.486675
0.485846
0.485013
0.484175
0.483333
0.482484
0.481629
0.480767
0.479897
0.479019
0.478132
0.477234
0.476325
0.475405
0.474471
0.473524
0.472562
0.471585
0.470591
0.469579
0.468548
0.467498
0.466427
0.465334
0.464219
0.463081
0.461918
0.46073
0.459517
0.458278
0.457011
0.455718
0.454397
0.453048
0.451672
0.450269
0.448838
0.44738
0.445895
0.444386
0.442852
0.441294
0.439715
0.438115
0.436497
0.434861
0.433212
0.43155
0.429879
0.428201
0.42652
0.424838
0.423158
0.421485
0.419822
0.418173
0.41654
0.414929
0.413343
0.411786
0.410262
0.408774
0.407326
0.405921
0.404562
0.403253
0.401995
0.400792
0.399643
0.398552
0.397518
0.396542
0.395623
0.39476
0.393952
0.393196
0.392491
0.391832
0.391216
0.390639
0.390095
0.389581
0.389089
0.388616
0.388154
0.387698
0.387242
0.386781
0.386308
0.385818
0.385305
0.384765
0.384193
0.383585
0.382937
0.382246
0.381508
0.380722
0.379886
0.378998
0.378058
0.377064
0.376018
0.374918
0.373767
0.372565
0.371315
0.370016
0.368673
0.367286
0.365859
0.364394
0.362895
0.361364
0.359803
0.358218
0.35661
0.354983
0.353341
0.351687
0.350023
0.348355
0.346683
0.345013
0.343347
0.341688
0.34004
0.338404
0.336785
0.335184
0.333605
0.33205
0.330521
0.32902
0.32755
0.326113
0.32471
0.323342
0.322012
0.320721
0.31947
0.318259
0.31709
0.315962
0.314878
0.313836
0.312837
0.31188
0.310966
0.310094
0.309264
0.308474
0.307724
0.307013
0.306341
0.305704
0.305104
0.304537
0.304004
0.303502
0.30303
0.302587
0.302171
0.301781
0.301416
0.301073
0.300752
0.300452
0.30017
0.299906
0.299659
0.299428
0.299211
0.299007
0.298816
0.298637
0.298468
0.298309
0.298159
0.298018
0.297885
0.29776
0.297641
0.297529
0.297422
0.297321
0.297225
0.297134
0.297047
0.296964
0.296885
0.29681
0.296738
0.296669
0.296604
0.296541
0.29648
0.296423
0.296367
0.296314
0.296263
0.296215
0.296168
0.296123
0.296079
0.296038
0.295998
0.295959
0.295922
0.295887
0.295853
0.29582
0.295788
0.295758
0.295729
0.295701
0.295674
0.295648
0.295623
0.295599
0.295576
0.295554
0.295532
0.295512
0.295492
0.295473
0.295455
0.295438
0.295421
0.295405
0.295389
0.295375
0.29536
0.295347
0.295333
0.295321
0.295309
0.295297
0.295286
0.295275
0.295265
0.295255
0.295246
0.295237
0.295228
0.29522
0.295212
0.295205
0.295197
0.295191
0.295184
0.295178
0.295172
0.295166
0.295161
0.295156
0.295151
0.295146
0.295142
0.295138
0.295134
0.29513
0.295127
0.295124
0.295121
0.295119
0.295116
0.295114
0.295112
0.295111
0.295109
0.295108
0.295107
0.295106
0.295105
0.295103
0.295094
0.295056
0.384718
0.399671
0.417133
0.435551
0.453667
0.470578
0.485677
0.498755
0.50988
0.519235
0.527039
0.533517
0.538877
0.543301
0.546943
0.549933
0.552378
0.554366
0.55597
0.557249
0.558252
0.559022
0.559591
0.559988
0.560236
0.560357
0.560366
0.560278
0.560105
0.559857
0.559544
0.559174
0.558752
0.558284
0.557777
0.557233
0.556657
0.556052
0.555422
0.554768
0.554094
0.553401
0.552692
0.551967
0.551229
0.550479
0.549718
0.548948
0.548169
0.547382
0.546588
0.545788
0.544983
0.544172
0.543358
0.542539
0.541718
0.540893
0.540065
0.539236
0.538404
0.53757
0.536735
0.535898
0.535061
0.534222
0.533383
0.532543
0.531703
0.530863
0.530023
0.529183
0.528343
0.527504
0.526665
0.525827
0.52499
0.524154
0.523318
0.522484
0.52165
0.520818
0.519987
0.519156
0.518327
0.5175
0.516673
0.515847
0.515023
0.5142
0.513378
0.512557
0.511737
0.510919
0.510102
0.509285
0.50847
0.507657
0.506844
0.506032
0.505221
0.504412
0.503603
0.502795
0.501988
0.501181
0.500375
0.49957
0.498765
0.49796
0.497155
0.49635
0.495545
0.494739
0.493932
0.493124
0.492316
0.491505
0.490693
0.489879
0.489062
0.488242
0.487418
0.486591
0.48576
0.484923
0.484081
0.483234
0.482379
0.481517
0.480647
0.479768
0.47888
0.477981
0.47707
0.476148
0.475212
0.474262
0.473297
0.472315
0.471317
0.4703
0.469264
0.468208
0.46713
0.466031
0.464908
0.463761
0.462589
0.461392
0.460168
0.458917
0.457638
0.456331
0.454995
0.453631
0.452237
0.450815
0.449364
0.447885
0.446378
0.444844
0.443283
0.441697
0.440088
0.438455
0.436802
0.43513
0.433441
0.431738
0.430022
0.428297
0.426566
0.424831
0.423095
0.421363
0.419638
0.417923
0.416223
0.41454
0.412879
0.411245
0.409639
0.408068
0.406533
0.405039
0.403589
0.402185
0.400832
0.399531
0.398283
0.397092
0.395957
0.39488
0.39386
0.392897
0.39199
0.391137
0.390335
0.389583
0.388876
0.388211
0.387584
0.386989
0.386422
0.385877
0.385349
0.384832
0.38432
0.383808
0.38329
0.38276
0.382213
0.381644
0.381049
0.380423
0.379763
0.379064
0.378324
0.377541
0.376711
0.375835
0.37491
0.373936
0.372912
0.37184
0.370719
0.369551
0.368336
0.367077
0.365775
0.364432
0.363051
0.361634
0.360184
0.358704
0.357197
0.355666
0.354113
0.352543
0.350957
0.349361
0.347756
0.346146
0.344535
0.342924
0.341318
0.339719
0.33813
0.336555
0.334995
0.333454
0.331934
0.330437
0.328966
0.327523
0.326109
0.324727
0.323379
0.322065
0.320788
0.319549
0.318348
0.317186
0.316065
0.314984
0.313944
0.312946
0.311989
0.311073
0.310198
0.309364
0.308569
0.307813
0.307096
0.306416
0.305773
0.305164
0.30459
0.304048
0.303538
0.303058
0.302607
0.302183
0.301785
0.301412
0.301061
0.300733
0.300426
0.300137
0.299867
0.299614
0.299377
0.299155
0.298946
0.29875
0.298566
0.298393
0.298231
0.298078
0.297933
0.297797
0.297669
0.297547
0.297433
0.297324
0.297221
0.297123
0.29703
0.296941
0.296857
0.296777
0.2967
0.296627
0.296558
0.296491
0.296427
0.296366
0.296308
0.296252
0.296198
0.296147
0.296097
0.29605
0.296004
0.295961
0.295919
0.295878
0.29584
0.295802
0.295767
0.295732
0.295699
0.295667
0.295637
0.295607
0.295579
0.295552
0.295526
0.295501
0.295477
0.295454
0.295432
0.29541
0.29539
0.29537
0.295351
0.295333
0.295316
0.295299
0.295283
0.295267
0.295252
0.295238
0.295225
0.295211
0.295199
0.295187
0.295175
0.295164
0.295154
0.295143
0.295134
0.295124
0.295115
0.295107
0.295099
0.295091
0.295084
0.295076
0.29507
0.295063
0.295057
0.295051
0.295046
0.29504
0.295035
0.29503
0.295026
0.295022
0.295018
0.295014
0.295011
0.295007
0.295004
0.295002
0.294999
0.294997
0.294995
0.294993
0.294991
0.29499
0.294989
0.294988
0.294987
0.294987
0.294986
0.294984
0.294975
0.294938
0.379452
0.386517
0.395428
0.405966
0.417667
0.429983
0.442348
0.454302
0.465544
0.475905
0.485306
0.49374
0.501244
0.507881
0.513723
0.51885
0.523337
0.527254
0.530667
0.533634
0.536207
0.538432
0.540349
0.541994
0.543398
0.544587
0.545585
0.546414
0.547091
0.547632
0.548052
0.548362
0.548574
0.548697
0.54874
0.54871
0.548615
0.54846
0.54825
0.547992
0.547688
0.547343
0.546961
0.546544
0.546097
0.54562
0.545118
0.544591
0.544042
0.543473
0.542886
0.542282
0.541662
0.541028
0.54038
0.539721
0.53905
0.538369
0.537678
0.536979
0.536271
0.535556
0.534834
0.534105
0.53337
0.53263
0.531885
0.531135
0.530382
0.529624
0.528863
0.528098
0.527331
0.526561
0.525789
0.525015
0.52424
0.523462
0.522683
0.521904
0.521122
0.52034
0.519558
0.518774
0.51799
0.517205
0.51642
0.515635
0.514849
0.514063
0.513277
0.512491
0.511704
0.510918
0.510131
0.509345
0.508559
0.507773
0.506986
0.506201
0.505415
0.504629
0.503843
0.503058
0.502272
0.501486
0.500701
0.499915
0.499128
0.498341
0.497554
0.496765
0.495976
0.495186
0.494394
0.493601
0.492806
0.492009
0.49121
0.490408
0.489602
0.488794
0.487981
0.487164
0.486343
0.485516
0.484683
0.483843
0.482997
0.482143
0.48128
0.480408
0.479526
0.478633
0.477728
0.47681
0.475879
0.474933
0.473972
0.472994
0.471998
0.470983
0.469949
0.468894
0.467817
0.466718
0.465594
0.464446
0.463272
0.462072
0.460844
0.459588
0.458303
0.456989
0.455646
0.454272
0.452868
0.451434
0.449969
0.448474
0.44695
0.445396
0.443814
0.442205
0.440569
0.438908
0.437223
0.435517
0.433791
0.432046
0.430287
0.428514
0.426731
0.424941
0.423147
0.421352
0.41956
0.417774
0.415998
0.414235
0.41249
0.410767
0.409069
0.407401
0.405765
0.404166
0.402608
0.401092
0.399624
0.398205
0.396838
0.395524
0.394266
0.393064
0.39192
0.390832
0.3898
0.388824
0.387902
0.387031
0.386209
0.385433
0.384698
0.384
0.383336
0.382699
0.382085
0.381488
0.380904
0.380325
0.379748
0.379166
0.378574
0.377967
0.377341
0.376691
0.376013
0.375303
0.374559
0.373777
0.372955
0.372092
0.371186
0.370235
0.36924
0.368201
0.367117
0.36599
0.36482
0.363609
0.362358
0.36107
0.359745
0.358388
0.356999
0.355582
0.354139
0.352674
0.351189
0.349687
0.348171
0.346645
0.345111
0.343572
0.342032
0.340493
0.338959
0.337432
0.335914
0.33441
0.332921
0.33145
0.329999
0.32857
0.327167
0.32579
0.324442
0.323125
0.321839
0.320587
0.319371
0.31819
0.317046
0.31594
0.314873
0.313844
0.312855
0.311905
0.310995
0.310124
0.309292
0.308498
0.307743
0.307024
0.306342
0.305696
0.305084
0.304506
0.303959
0.303444
0.302959
0.302502
0.302073
0.301669
0.30129
0.300934
0.3006
0.300287
0.299994
0.299719
0.299461
0.299219
0.298992
0.298779
0.298579
0.298392
0.298215
0.29805
0.297893
0.297746
0.297608
0.297477
0.297353
0.297237
0.297126
0.297021
0.296922
0.296827
0.296738
0.296653
0.296571
0.296494
0.29642
0.29635
0.296282
0.296218
0.296156
0.296098
0.296041
0.295987
0.295935
0.295886
0.295838
0.295792
0.295749
0.295707
0.295666
0.295627
0.29559
0.295554
0.29552
0.295487
0.295455
0.295424
0.295395
0.295367
0.29534
0.295314
0.295289
0.295265
0.295242
0.29522
0.295199
0.295178
0.295159
0.29514
0.295122
0.295105
0.295088
0.295072
0.295057
0.295042
0.295028
0.295015
0.295002
0.294989
0.294978
0.294966
0.294955
0.294945
0.294935
0.294925
0.294916
0.294908
0.294899
0.294891
0.294884
0.294876
0.294869
0.294863
0.294857
0.294851
0.294845
0.29484
0.294834
0.29483
0.294825
0.294821
0.294817
0.294813
0.294809
0.294806
0.294803
0.2948
0.294798
0.294795
0.294793
0.294791
0.29479
0.294788
0.294787
0.294786
0.294785
0.294784
0.294784
0.294784
0.294784
0.294782
0.294774
0.294737
0.377292
0.380858
0.385399
0.391
0.397641
0.405196
0.41344
0.422103
0.43093
0.439701
0.44824
0.456419
0.46415
0.471384
0.478097
0.484286
0.489963
0.495149
0.499871
0.504158
0.508042
0.511552
0.514719
0.517571
0.520135
0.522435
0.524493
0.526332
0.527968
0.529421
0.530705
0.531836
0.532824
0.533684
0.534424
0.535056
0.535587
0.536025
0.536379
0.536654
0.536857
0.536993
0.537067
0.537084
0.537049
0.536964
0.536835
0.536663
0.536453
0.536206
0.535926
0.535615
0.535274
0.534907
0.534515
0.534099
0.533661
0.533203
0.532726
0.532231
0.531719
0.531191
0.530648
0.530092
0.529523
0.528942
0.528349
0.527746
0.527133
0.52651
0.525879
0.52524
0.524593
0.523939
0.523279
0.522612
0.52194
0.521263
0.520581
0.519893
0.519202
0.518507
0.517807
0.517105
0.516398
0.515689
0.514977
0.514262
0.513544
0.512824
0.512101
0.511376
0.510649
0.50992
0.50919
0.508457
0.507723
0.506987
0.50625
0.505512
0.504772
0.504031
0.503288
0.502544
0.501799
0.501053
0.500305
0.499556
0.498806
0.498054
0.4973
0.496544
0.495787
0.495027
0.494265
0.493501
0.492734
0.491964
0.491191
0.490415
0.489634
0.48885
0.488061
0.487267
0.486467
0.485661
0.484849
0.48403
0.483203
0.482367
0.481523
0.480669
0.479804
0.478927
0.478038
0.477136
0.47622
0.475289
0.474341
0.473377
0.472394
0.471392
0.47037
0.469326
0.46826
0.467171
0.466057
0.464918
0.463752
0.462559
0.461337
0.460087
0.458807
0.457497
0.456155
0.454783
0.453378
0.451942
0.450474
0.448974
0.447442
0.445879
0.444285
0.442661
0.441009
0.439328
0.437621
0.435888
0.434133
0.432355
0.430559
0.428746
0.426918
0.425079
0.423231
0.421377
0.419522
0.417667
0.415818
0.413977
0.412149
0.410337
0.408545
0.406778
0.405038
0.403331
0.401659
0.400026
0.398437
0.396892
0.395397
0.393952
0.39256
0.391223
0.389942
0.388717
0.387549
0.386438
0.385381
0.384379
0.383428
0.382526
0.38167
0.380856
0.380081
0.379339
0.378627
0.377939
0.37727
0.376614
0.375968
0.375324
0.374679
0.374027
0.373363
0.372683
0.371983
0.371258
0.370507
0.369724
0.368909
0.368058
0.36717
0.366244
0.365279
0.364275
0.363231
0.362147
0.361026
0.359867
0.358671
0.357441
0.356178
0.354884
0.353562
0.352213
0.350841
0.349448
0.348036
0.346608
0.345168
0.343718
0.34226
0.340799
0.339336
0.337875
0.336418
0.334968
0.333528
0.3321
0.330687
0.32929
0.327914
0.326559
0.325227
0.323922
0.322644
0.321395
0.320176
0.31899
0.317837
0.316718
0.315635
0.314587
0.313576
0.312603
0.311666
0.310767
0.309905
0.309081
0.308293
0.307542
0.306827
0.306147
0.305501
0.304889
0.304309
0.303761
0.303244
0.302755
0.302295
0.301862
0.301454
0.301071
0.300711
0.300373
0.300056
0.299758
0.299479
0.299217
0.298971
0.29874
0.298524
0.298321
0.29813
0.29795
0.297782
0.297623
0.297473
0.297332
0.297199
0.297074
0.296955
0.296843
0.296737
0.296636
0.296541
0.29645
0.296364
0.296282
0.296203
0.296129
0.296058
0.29599
0.295925
0.295864
0.295804
0.295748
0.295694
0.295642
0.295592
0.295544
0.295499
0.295455
0.295413
0.295372
0.295333
0.295296
0.295261
0.295226
0.295193
0.295162
0.295131
0.295102
0.295074
0.295048
0.295022
0.294997
0.294973
0.29495
0.294929
0.294908
0.294887
0.294868
0.29485
0.294832
0.294815
0.294798
0.294783
0.294768
0.294753
0.29474
0.294726
0.294714
0.294702
0.29469
0.294679
0.294668
0.294658
0.294649
0.294639
0.29463
0.294622
0.294614
0.294606
0.294599
0.294592
0.294585
0.294579
0.294573
0.294567
0.294562
0.294557
0.294552
0.294547
0.294543
0.294539
0.294535
0.294532
0.294528
0.294525
0.294522
0.29452
0.294518
0.294515
0.294513
0.294512
0.29451
0.294509
0.294508
0.294507
0.294506
0.294506
0.294506
0.294506
0.294506
0.294506
0.294505
0.294497
0.294461
0.376291
0.378229
0.380646
0.383628
0.387245
0.391529
0.396451
0.401933
0.407864
0.414123
0.420582
0.427124
0.433645
0.440058
0.446294
0.452303
0.458046
0.463501
0.468654
0.4735
0.47804
0.482279
0.486227
0.489895
0.493296
0.496443
0.499351
0.502032
0.504501
0.50677
0.508853
0.510761
0.512506
0.514099
0.515548
0.516865
0.518057
0.519133
0.5201
0.520966
0.521737
0.522419
0.523019
0.523541
0.523991
0.524373
0.524691
0.52495
0.525153
0.525304
0.525406
0.525462
0.525475
0.525448
0.525382
0.525281
0.525146
0.524979
0.524782
0.524557
0.524305
0.524028
0.523727
0.523404
0.523059
0.522694
0.522311
0.521909
0.52149
0.521056
0.520606
0.520142
0.519665
0.519175
0.518672
0.518159
0.517635
0.517101
0.516557
0.516004
0.515442
0.514873
0.514295
0.51371
0.513118
0.51252
0.511915
0.511304
0.510687
0.510065
0.509437
0.508805
0.508167
0.507525
0.506879
0.506228
0.505573
0.504915
0.504253
0.503587
0.502918
0.502246
0.50157
0.500891
0.500209
0.499525
0.498837
0.498146
0.497452
0.496755
0.496055
0.495351
0.494645
0.493934
0.493221
0.492503
0.491782
0.491057
0.490327
0.489593
0.488853
0.488109
0.487359
0.486602
0.48584
0.48507
0.484294
0.483509
0.482715
0.481913
0.481101
0.480278
0.479443
0.478597
0.477737
0.476864
0.475976
0.475072
0.474152
0.473214
0.472257
0.47128
0.470283
0.469263
0.468221
0.467154
0.466063
0.464945
0.463801
0.462628
0.461426
0.460194
0.458932
0.457638
0.456312
0.454954
0.453562
0.452138
0.450679
0.449187
0.447661
0.446102
0.44451
0.442886
0.44123
0.439543
0.437826
0.436081
0.434309
0.432511
0.430691
0.428849
0.426989
0.425112
0.423222
0.421321
0.419413
0.417501
0.415588
0.413679
0.411776
0.409884
0.408006
0.406147
0.40431
0.4025
0.400721
0.398975
0.397268
0.395602
0.39398
0.392406
0.390882
0.38941
0.387992
0.386629
0.385323
0.384073
0.382879
0.381741
0.380657
0.379625
0.378643
0.377708
0.376817
0.375965
0.375148
0.374363
0.373604
0.372867
0.372146
0.371436
0.370732
0.37003
0.369324
0.36861
0.367884
0.367141
0.366379
0.365593
0.364782
0.363941
0.363071
0.362168
0.361232
0.360261
0.359256
0.358217
0.357143
0.356036
0.354897
0.353726
0.352525
0.351296
0.350041
0.348762
0.347461
0.346141
0.344804
0.343452
0.342089
0.340716
0.339337
0.337955
0.336571
0.335189
0.333811
0.332439
0.331077
0.329727
0.328391
0.327071
0.32577
0.32449
0.323232
0.321998
0.320791
0.319611
0.31846
0.31734
0.316251
0.315195
0.314172
0.313183
0.312229
0.31131
0.310426
0.309577
0.308764
0.307986
0.307242
0.306533
0.305857
0.305215
0.304605
0.304027
0.303479
0.302961
0.302471
0.302009
0.301574
0.301163
0.300777
0.300414
0.300072
0.299751
0.29945
0.299167
0.298901
0.298652
0.298418
0.298198
0.297991
0.297797
0.297615
0.297444
0.297282
0.29713
0.296987
0.296852
0.296725
0.296604
0.296491
0.296383
0.296281
0.296184
0.296092
0.296005
0.295922
0.295843
0.295768
0.295697
0.295629
0.295563
0.295501
0.295442
0.295385
0.295331
0.295279
0.295229
0.295181
0.295135
0.295091
0.295049
0.295009
0.294971
0.294933
0.294898
0.294864
0.294831
0.2948
0.29477
0.294741
0.294713
0.294686
0.294661
0.294636
0.294613
0.29459
0.294569
0.294548
0.294528
0.294509
0.294491
0.294474
0.294457
0.294441
0.294425
0.294411
0.294397
0.294383
0.29437
0.294358
0.294346
0.294335
0.294324
0.294314
0.294304
0.294295
0.294286
0.294277
0.294269
0.294261
0.294254
0.294247
0.29424
0.294234
0.294228
0.294222
0.294217
0.294212
0.294207
0.294202
0.294198
0.294194
0.29419
0.294187
0.294184
0.294181
0.294178
0.294175
0.294173
0.294171
0.294169
0.294167
0.294166
0.294164
0.294163
0.294163
0.294162
0.294162
0.294161
0.294161
0.294162
0.294162
0.294163
0.294163
0.294162
0.294155
0.294119
0.375764
0.376878
0.378232
0.379872
0.381853
0.384228
0.387026
0.390251
0.393884
0.39789
0.402217
0.406803
0.411584
0.416495
0.421473
0.426464
0.431418
0.436295
0.441061
0.445689
0.450159
0.454456
0.458571
0.462498
0.466233
0.469777
0.473132
0.4763
0.479287
0.482098
0.484739
0.487217
0.489538
0.491709
0.493737
0.495629
0.49739
0.499029
0.50055
0.501959
0.503264
0.504468
0.505577
0.506597
0.507531
0.508385
0.509163
0.509869
0.510507
0.51108
0.511592
0.512046
0.512445
0.512792
0.51309
0.513341
0.513548
0.513712
0.513837
0.513924
0.513974
0.51399
0.513973
0.513926
0.513848
0.513743
0.513611
0.513453
0.513271
0.513066
0.512839
0.512591
0.512323
0.512037
0.511732
0.511411
0.511073
0.51072
0.510352
0.50997
0.509575
0.509166
0.508746
0.508313
0.50787
0.507415
0.506951
0.506476
0.505992
0.505499
0.504997
0.504486
0.503968
0.503441
0.502908
0.502367
0.501819
0.501265
0.500704
0.500137
0.499564
0.498986
0.498401
0.497812
0.497217
0.496617
0.496011
0.495401
0.494786
0.494165
0.49354
0.492909
0.492274
0.491633
0.490988
0.490336
0.48968
0.489018
0.48835
0.487675
0.486995
0.486308
0.485614
0.484913
0.484205
0.483488
0.482763
0.482029
0.481285
0.480531
0.479766
0.47899
0.478202
0.4774
0.476585
0.475755
0.47491
0.474048
0.473169
0.472272
0.471355
0.470418
0.46946
0.468479
0.467474
0.466445
0.465391
0.464309
0.4632
0.462062
0.460894
0.459696
0.458466
0.457204
0.455909
0.45458
0.453217
0.451819
0.450386
0.448918
0.447414
0.445875
0.4443
0.442691
0.441047
0.43937
0.43766
0.435919
0.434147
0.432346
0.430518
0.428664
0.426787
0.42489
0.422974
0.421042
0.419098
0.417144
0.415184
0.413221
0.411259
0.409301
0.407353
0.405416
0.403497
0.401598
0.399724
0.397878
0.396065
0.394289
0.392552
0.390859
0.389212
0.387615
0.386068
0.384576
0.383138
0.381756
0.380431
0.379162
0.377949
0.376791
0.375686
0.374632
0.373626
0.372665
0.371745
0.370863
0.370014
0.369194
0.368397
0.367619
0.366856
0.366102
0.365352
0.364602
0.363848
0.363086
0.362311
0.36152
0.36071
0.359878
0.359022
0.35814
0.357231
0.356293
0.355326
0.354328
0.353301
0.352245
0.351159
0.350046
0.348906
0.347741
0.346552
0.345341
0.344111
0.342862
0.341598
0.340321
0.339034
0.337738
0.336436
0.335131
0.333824
0.33252
0.33122
0.329926
0.328641
0.327368
0.326108
0.324863
0.323636
0.322428
0.321242
0.320079
0.318941
0.317829
0.316745
0.315689
0.314663
0.313667
0.312704
0.311772
0.310873
0.310006
0.309173
0.308373
0.307607
0.306873
0.306172
0.305503
0.304866
0.30426
0.303684
0.303138
0.30262
0.30213
0.301668
0.30123
0.300818
0.300429
0.300063
0.299719
0.299394
0.29909
0.298803
0.298534
0.298281
0.298043
0.29782
0.29761
0.297413
0.297228
0.297053
0.296889
0.296735
0.296589
0.296452
0.296322
0.2962
0.296085
0.295975
0.295872
0.295774
0.295681
0.295592
0.295508
0.295429
0.295353
0.295281
0.295212
0.295146
0.295083
0.295024
0.294966
0.294912
0.29486
0.29481
0.294762
0.294716
0.294672
0.29463
0.29459
0.294552
0.294515
0.294479
0.294445
0.294413
0.294382
0.294352
0.294323
0.294295
0.294269
0.294244
0.29422
0.294196
0.294174
0.294153
0.294132
0.294113
0.294094
0.294076
0.294059
0.294043
0.294027
0.294012
0.293997
0.293984
0.29397
0.293958
0.293946
0.293934
0.293924
0.293913
0.293903
0.293894
0.293885
0.293876
0.293868
0.29386
0.293853
0.293845
0.293839
0.293832
0.293826
0.293821
0.293815
0.29381
0.293805
0.293801
0.293797
0.293793
0.293789
0.293786
0.293782
0.293779
0.293777
0.293774
0.293772
0.29377
0.293768
0.293766
0.293765
0.293764
0.293763
0.293762
0.293761
0.293761
0.293761
0.293761
0.293761
0.293761
0.293762
0.293763
0.293764
0.293764
0.293764
0.293757
0.293722
0.375454
0.376108
0.376889
0.377819
0.378927
0.38025
0.381818
0.383654
0.385772
0.388175
0.390855
0.393796
0.396972
0.400354
0.403908
0.407596
0.411384
0.415237
0.419122
0.423009
0.426873
0.430691
0.434444
0.438115
0.441692
0.445164
0.448524
0.451766
0.454885
0.457881
0.460751
0.463495
0.466115
0.468611
0.470987
0.473245
0.475387
0.477417
0.479339
0.481155
0.48287
0.484486
0.486009
0.487441
0.488786
0.490048
0.491229
0.492334
0.493365
0.494327
0.49522
0.49605
0.496818
0.497528
0.498181
0.49878
0.499327
0.499826
0.500277
0.500683
0.501045
0.501366
0.501648
0.501891
0.502098
0.50227
0.502409
0.502515
0.502591
0.502638
0.502657
0.502649
0.502615