/*--------------------------------*- C++ -*----------------------------------*\
| =========                 |                                                 |
| \\      /  F ield         | OpenFOAM: The Open Source CFD Toolbox           |
|  \\    /   O peration     | Version:  2506                                  |
|   \\  /    A nd           | Website:  www.openfoam.com                      |
|    \\/     M anipulation  |                                                 |
\*---------------------------------------------------------------------------*/
FoamFile
{
    version     2.0;
    format      ascii;
    arch        "LSB;label=32;scalar=64";
    class       volScalarField;
    location    "200";
    object      nut;
}
// * * * * * * * * * * * * * * * * * * * * * * * * * * * * * * * * * * * * * //

dimensions      [0 2 -1 0 0 0 0];

internalField   nonuniform List<scalar> 
131949
(
0.0659348
0.0681938
0.0682834
0.0682249
0.0682923
0.0684244
0.068575
0.0687291
0.0688799
0.0690235
0.0691585
0.069285
0.0694033
0.0695141
0.069618
0.0697156
0.0698075
0.0698942
0.0699762
0.0700539
0.0701276
0.0701977
0.0702645
0.0703283
0.0703892
0.0704475
0.0705033
0.0705569
0.0706084
0.070658
0.0707057
0.0707516
0.0707959
0.0708387
0.07088
0.0709199
0.0709585
0.0709959
0.071032
0.0710671
0.0711011
0.0711342
0.0711662
0.0711974
0.0712278
0.0712573
0.0712861
0.0713141
0.0713415
0.0713682
0.0713942
0.0714197
0.0714446
0.071469
0.0714928
0.071516
0.0715388
0.071561
0.0715828
0.0716041
0.071625
0.0716453
0.0716653
0.0716848
0.0717039
0.0717226
0.0717409
0.0717588
0.0717764
0.0717936
0.0718105
0.0718271
0.0718434
0.0718594
0.0718751
0.0718905
0.0719056
0.0719205
0.0719351
0.0719495
0.0719636
0.0719774
0.071991
0.0720043
0.0720174
0.0720302
0.0720427
0.072055
0.072067
0.0720788
0.0720903
0.0721015
0.0721124
0.0721231
0.0721335
0.0721437
0.0721536
0.0721632
0.0721725
0.0721816
0.0721903
0.0721988
0.072207
0.0722148
0.0722223
0.0722295
0.0722362
0.0722426
0.0722486
0.0722541
0.0722592
0.0722637
0.0722677
0.0722711
0.0722739
0.072276
0.0722773
0.0722779
0.0722777
0.0722765
0.0722743
0.072271
0.0722666
0.072261
0.0722539
0.0722454
0.0722353
0.0722235
0.0722099
0.0721943
0.0721765
0.0721564
0.0721338
0.0721086
0.0720805
0.0720495
0.0720152
0.0719775
0.0719361
0.071891
0.0718418
0.0717884
0.0717305
0.071668
0.0716007
0.0715283
0.0714507
0.0713678
0.0712794
0.0711854
0.0710856
0.0709799
0.0708683
0.0707508
0.0706273
0.0704978
0.0703624
0.0702212
0.0700742
0.0699215
0.0697635
0.0696003
0.0694321
0.0692592
0.069082
0.0689009
0.0687161
0.0685282
0.0683377
0.0681449
0.0679505
0.067755
0.067559
0.0673631
0.0671679
0.0669739
0.0667819
0.0665925
0.0664063
0.0662239
0.0660458
0.0658728
0.0657052
0.0655437
0.0653886
0.0652404
0.0650993
0.0649657
0.0648397
0.0647214
0.0646109
0.0645081
0.0644128
0.0643247
0.0642436
0.0641689
0.0641002
0.0640368
0.063978
0.0639232
0.0638715
0.063822
0.0637739
0.0637263
0.0636784
0.0636291
0.0635777
0.0635233
0.0634651
0.0634025
0.0633346
0.063261
0.0631812
0.0630946
0.0630009
0.0629
0.0627916
0.0626756
0.0625521
0.0624211
0.0622827
0.0621373
0.0619851
0.0618264
0.0616617
0.0614915
0.0613162
0.0611365
0.0609528
0.0607658
0.0605762
0.0603845
0.0601916
0.0599979
0.0598042
0.0596113
0.0594198
0.0592303
0.0590436
0.0588603
0.0586812
0.0585068
0.0583379
0.058175
0.0580187
0.0578698
0.0577286
0.0575959
0.0574721
0.0573578
0.0572534
0.0571595
0.0570763
0.0570043
0.0569439
0.0568953
0.0568589
0.0568349
0.0568233
0.0568244
0.0568383
0.0568648
0.056904
0.0569558
0.0570199
0.0570962
0.0571844
0.057284
0.0573946
0.0575159
0.0576471
0.0577877
0.0579371
0.0580945
0.0582593
0.0584306
0.0586076
0.0587896
0.0589757
0.0591651
0.0593569
0.0595503
0.0597446
0.059939
0.0601327
0.0603251
0.0605154
0.0607032
0.0608877
0.0610685
0.0612452
0.0614174
0.0615846
0.0617467
0.0619033
0.0620543
0.0621996
0.062339
0.0624725
0.0626001
0.0627218
0.0628376
0.0629477
0.0630521
0.0631509
0.0632444
0.0633326
0.0634158
0.0634941
0.0635677
0.0636368
0.0637016
0.0637623
0.0638192
0.0638723
0.063922
0.0639683
0.0640115
0.0640518
0.0640893
0.0641242
0.0641567
0.0641869
0.064215
0.0642411
0.0642653
0.0642879
0.0643088
0.0643282
0.0643462
0.064363
0.0643785
0.0643929
0.0644064
0.0644188
0.0644304
0.0644412
0.0644512
0.0644606
0.0644692
0.0644774
0.0644849
0.064492
0.0644986
0.0645047
0.0645105
0.0645159
0.064521
0.0645257
0.0645302
0.0645344
0.0645384
0.0645421
0.0645456
0.0645489
0.0645521
0.0645551
0.0645579
0.0645606
0.0645631
0.0645655
0.0645678
0.06457
0.0645721
0.0645741
0.0645761
0.0645779
0.0645797
0.0645814
0.064583
0.0645846
0.0645861
0.0645876
0.064589
0.0645904
0.0645917
0.064593
0.0645943
0.0645956
0.0645968
0.064598
0.0645991
0.0646003
0.0646014
0.0646025
0.0646036
0.0646047
0.0646058
0.0646069
0.0646079
0.064609
0.0646101
0.0646111
0.0646122
0.0646133
0.0646144
0.0646154
0.0646162
0.0646166
0.0646167
0.0637129
0.0662548
0.0678727
0.0686927
0.0691232
0.0693598
0.0694951
0.0695864
0.0696622
0.0697328
0.0698019
0.0698704
0.0699383
0.0700054
0.0700712
0.0701355
0.0701981
0.0702589
0.0703179
0.0703749
0.0704301
0.0704835
0.0705351
0.070585
0.0706333
0.0706801
0.0707253
0.0707691
0.0708115
0.0708527
0.0708926
0.0709312
0.0709688
0.0710052
0.0710405
0.0710749
0.0711082
0.0711406
0.0711722
0.0712029
0.0712327
0.0712618
0.0712902
0.0713178
0.0713448
0.0713711
0.0713969
0.071422
0.0714466
0.0714707
0.0714943
0.0715173
0.0715399
0.071562
0.0715837
0.071605
0.0716258
0.0716461
0.0716661
0.0716857
0.0717048
0.0717236
0.0717419
0.0717599
0.0717776
0.0717949
0.0718118
0.0718284
0.0718447
0.0718607
0.0718764
0.0718919
0.071907
0.0719219
0.0719366
0.071951
0.0719651
0.0719791
0.0719927
0.0720062
0.0720194
0.0720324
0.0720451
0.0720576
0.0720699
0.0720819
0.0720937
0.0721052
0.0721165
0.0721276
0.0721383
0.0721489
0.0721592
0.0721692
0.072179
0.0721885
0.0721978
0.0722068
0.0722155
0.072224
0.0722321
0.07224
0.0722476
0.0722549
0.0722619
0.0722685
0.0722747
0.0722806
0.072286
0.072291
0.0722955
0.0722995
0.0723029
0.0723058
0.072308
0.0723095
0.0723103
0.0723103
0.0723094
0.0723076
0.0723048
0.0723009
0.0722958
0.0722894
0.0722817
0.0722724
0.0722615
0.0722489
0.0722344
0.0722179
0.0721992
0.0721781
0.0721545
0.0721282
0.072099
0.0720668
0.0720313
0.0719922
0.0719496
0.071903
0.0718523
0.0717973
0.0717379
0.0716737
0.0716046
0.0715304
0.071451
0.0713662
0.0712758
0.0711797
0.0710778
0.07097
0.0708562
0.0707364
0.0706107
0.0704789
0.0703411
0.0701975
0.0700481
0.0698931
0.0697327
0.0695671
0.0693966
0.0692214
0.0690419
0.0688585
0.0686715
0.0684814
0.0682888
0.068094
0.0678977
0.0677003
0.0675026
0.067305
0.0671082
0.0669128
0.0667195
0.0665289
0.0663416
0.0661582
0.0659794
0.0658057
0.0656376
0.0654756
0.0653202
0.0651718
0.0650307
0.0648972
0.0647714
0.0646534
0.0645432
0.0644408
0.0643459
0.0642584
0.0641778
0.0641036
0.0640355
0.0639726
0.0639144
0.0638601
0.0638088
0.0637598
0.063712
0.0636648
0.063617
0.0635679
0.0635166
0.0634623
0.0634041
0.0633414
0.0632735
0.0631998
0.0631198
0.0630331
0.0629394
0.0628384
0.06273
0.062614
0.0624906
0.0623598
0.0622218
0.0620768
0.0619252
0.0617672
0.0616034
0.0614342
0.0612602
0.0610818
0.0608997
0.0607145
0.0605268
0.0603373
0.0601467
0.0599556
0.0597648
0.0595748
0.0593865
0.0592004
0.0590173
0.0588379
0.0586628
0.0584926
0.0583281
0.0581698
0.0580183
0.0578743
0.0577383
0.0576108
0.0574924
0.0573836
0.0572848
0.0571965
0.0571192
0.057053
0.0569985
0.0569559
0.0569254
0.0569072
0.0569014
0.0569083
0.0569277
0.0569597
0.0570043
0.0570612
0.0571302
0.0572111
0.0573036
0.0574072
0.0575216
0.0576462
0.0577803
0.0579235
0.0580751
0.0582342
0.0584003
0.0585724
0.0587499
0.0589318
0.0591175
0.059306
0.0594966
0.0596884
0.0598807
0.0600727
0.0602638
0.0604532
0.0606404
0.0608247
0.0610056
0.0611826
0.0613554
0.0615235
0.0616867
0.0618446
0.061997
0.0621439
0.062285
0.0624203
0.0625497
0.0626733
0.0627911
0.0629031
0.0630095
0.0631103
0.0632057
0.0632958
0.0633809
0.063461
0.0635364
0.0636072
0.0636737
0.063736
0.0637943
0.0638489
0.0638999
0.0639476
0.0639921
0.0640335
0.0640721
0.0641081
0.0641416
0.0641727
0.0642016
0.0642285
0.0642535
0.0642768
0.0642983
0.0643183
0.0643369
0.0643542
0.0643702
0.0643851
0.0643989
0.0644118
0.0644237
0.0644348
0.0644452
0.0644548
0.0644637
0.0644721
0.0644798
0.0644871
0.0644939
0.0645002
0.0645061
0.0645117
0.0645169
0.0645217
0.0645263
0.0645306
0.0645347
0.0645385
0.0645421
0.0645455
0.0645487
0.0645517
0.0645546
0.0645573
0.0645599
0.0645624
0.0645647
0.0645669
0.0645691
0.0645711
0.0645731
0.0645749
0.0645767
0.0645784
0.0645801
0.0645817
0.0645832
0.0645847
0.0645861
0.0645875
0.0645889
0.0645902
0.0645914
0.0645927
0.0645939
0.0645951
0.0645962
0.0645974
0.0645985
0.0645996
0.0646007
0.0646018
0.0646029
0.0646039
0.064605
0.0646061
0.0646071
0.0646082
0.0646093
0.0646103
0.0646114
0.0646125
0.0646134
0.0646143
0.0646147
0.0646147
0.0627756
0.0647436
0.0664131
0.0676585
0.0685591
0.0691942
0.0696271
0.06992
0.0701221
0.0702659
0.0703722
0.0704548
0.0705221
0.0705796
0.0706306
0.0706772
0.0707207
0.070762
0.0708015
0.0708397
0.0708767
0.0709127
0.0709478
0.070982
0.0710154
0.0710481
0.0710801
0.0711114
0.071142
0.0711719
0.0712012
0.0712299
0.0712579
0.0712853
0.0713121
0.0713384
0.071364
0.0713891
0.0714137
0.0714377
0.0714613
0.0714843
0.0715069
0.0715291
0.0715508
0.0715721
0.071593
0.0716135
0.0716337
0.0716535
0.071673
0.0716921
0.071711
0.0717295
0.0717476
0.0717655
0.0717831
0.0718003
0.0718172
0.0718339
0.0718502
0.0718662
0.071882
0.0718974
0.0719126
0.0719275
0.0719421
0.0719565
0.0719706
0.0719845
0.0719981
0.0720116
0.0720248
0.0720378
0.0720507
0.0720633
0.0720757
0.072088
0.0721
0.0721119
0.0721236
0.072135
0.0721463
0.0721574
0.0721683
0.0721789
0.0721894
0.0721996
0.0722096
0.0722194
0.0722289
0.0722383
0.0722474
0.0722563
0.0722649
0.0722733
0.0722815
0.0722895
0.0722972
0.0723046
0.0723118
0.0723187
0.0723253
0.0723317
0.0723377
0.0723434
0.0723487
0.0723536
0.0723582
0.0723623
0.0723659
0.072369
0.0723716
0.0723736
0.0723749
0.0723756
0.0723755
0.0723746
0.0723729
0.0723702
0.0723665
0.0723617
0.0723557
0.0723485
0.0723398
0.0723296
0.0723178
0.0723042
0.0722887
0.0722712
0.0722514
0.0722293
0.0722046
0.0721772
0.0721469
0.0721134
0.0720766
0.0720364
0.0719924
0.0719445
0.0718924
0.071836
0.071775
0.0717093
0.0716387
0.0715629
0.0714818
0.0713952
0.071303
0.071205
0.0711012
0.0709914
0.0708757
0.0707538
0.0706259
0.0704919
0.0703518
0.0702059
0.0700541
0.0698967
0.0697337
0.0695655
0.0693923
0.0692144
0.0690321
0.0688458
0.068656
0.0684629
0.0682672
0.0680693
0.0678698
0.0676693
0.0674682
0.0672673
0.0670672
0.0668684
0.0666716
0.0664775
0.0662868
0.0660999
0.0659176
0.0657404
0.0655688
0.0654035
0.0652447
0.065093
0.0649487
0.064812
0.0646831
0.0645622
0.0644492
0.0643442
0.0642469
0.0641572
0.0640745
0.0639986
0.0639289
0.0638647
0.0638054
0.0637503
0.0636985
0.0636492
0.0636015
0.0635545
0.0635073
0.0634591
0.0634089
0.0633559
0.0632994
0.0632386
0.0631728
0.0631014
0.063024
0.0629401
0.0628493
0.0627515
0.0626464
0.062534
0.0624142
0.0622872
0.0621532
0.0620123
0.0618649
0.0617113
0.061552
0.0613874
0.061218
0.0610445
0.0608673
0.0606872
0.0605046
0.0603204
0.0601351
0.0599495
0.0597641
0.0595798
0.0593972
0.0592169
0.0590397
0.0588662
0.058697
0.0585329
0.0583745
0.0582224
0.0580771
0.0579393
0.0578095
0.0576883
0.0575762
0.0574736
0.0573811
0.057299
0.0572277
0.0571676
0.057119
0.0570821
0.0570572
0.0570445
0.0570441
0.057056
0.0570802
0.0571168
0.0571656
0.0572264
0.057299
0.0573831
0.0574784
0.0575845
0.0577009
0.057827
0.0579623
0.0581062
0.0582579
0.0584168
0.0585821
0.0587531
0.058929
0.0591089
0.0592921
0.0594778
0.0596651
0.0598534
0.0600419
0.0602298
0.0604165
0.0606013
0.0607837
0.0609631
0.061139
0.0613109
0.0614785
0.0616414
0.0617993
0.061952
0.0620994
0.0622412
0.0623773
0.0625077
0.0626324
0.0627514
0.0628647
0.0629724
0.0630747
0.0631715
0.0632631
0.0633496
0.0634311
0.063508
0.0635802
0.063648
0.0637117
0.0637714
0.0638272
0.0638795
0.0639283
0.0639739
0.0640164
0.064056
0.0640929
0.0641273
0.0641593
0.064189
0.0642167
0.0642424
0.0642663
0.0642885
0.0643091
0.0643282
0.064346
0.0643625
0.0643778
0.064392
0.0644053
0.0644176
0.064429
0.0644396
0.0644495
0.0644587
0.0644673
0.0644752
0.0644827
0.0644896
0.0644961
0.0645022
0.0645079
0.0645132
0.0645182
0.0645229
0.0645273
0.0645314
0.0645353
0.064539
0.0645425
0.0645457
0.0645488
0.0645517
0.0645545
0.0645572
0.0645597
0.064562
0.0645643
0.0645665
0.0645685
0.0645705
0.0645724
0.0645742
0.0645759
0.0645776
0.0645792
0.0645807
0.0645822
0.0645837
0.0645851
0.0645864
0.0645877
0.064589
0.0645903
0.0645915
0.0645927
0.0645938
0.064595
0.0645961
0.0645972
0.0645983
0.0645994
0.0646004
0.0646015
0.0646025
0.0646036
0.0646046
0.0646057
0.0646067
0.0646078
0.0646088
0.0646099
0.0646109
0.0646119
0.0646127
0.0646131
0.0646132
0.0620603
0.0633079
0.0646075
0.0658335
0.0669181
0.0678325
0.0685721
0.0691542
0.0696068
0.0699571
0.0702283
0.0704397
0.070606
0.0707387
0.0708462
0.0709347
0.0710088
0.0710721
0.071127
0.0711754
0.0712187
0.071258
0.071294
0.0713274
0.0713587
0.0713883
0.0714163
0.0714431
0.0714688
0.0714935
0.0715173
0.0715405
0.0715629
0.0715847
0.0716059
0.0716266
0.0716467
0.0716664
0.0716857
0.0717045
0.0717229
0.071741
0.0717587
0.0717761
0.0717932
0.07181
0.0718265
0.0718428
0.0718588
0.0718746
0.0718902
0.0719055
0.0719206
0.0719355
0.0719502
0.0719646
0.0719789
0.0719929
0.0720067
0.0720203
0.0720336
0.0720467
0.0720596
0.0720723
0.0720848
0.0720971
0.0721092
0.0721211
0.0721328
0.0721443
0.0721557
0.0721669
0.0721779
0.0721888
0.0721996
0.0722102
0.0722206
0.0722309
0.0722411
0.0722511
0.072261
0.0722707
0.0722803
0.0722897
0.0722989
0.0723079
0.0723168
0.0723254
0.0723339
0.0723422
0.0723503
0.0723582
0.0723659
0.0723734
0.0723807
0.0723878
0.0723946
0.0724013
0.0724077
0.0724139
0.0724199
0.0724256
0.0724311
0.0724363
0.0724411
0.0724457
0.0724499
0.0724537
0.0724572
0.0724602
0.0724628
0.0724648
0.0724664
0.0724673
0.0724676
0.0724673
0.0724662
0.0724643
0.0724616
0.0724579
0.0724532
0.0724474
0.0724404
0.0724322
0.0724225
0.0724113
0.0723985
0.0723839
0.0723674
0.0723488
0.072328
0.0723048
0.0722791
0.0722506
0.0722192
0.0721846
0.0721468
0.0721054
0.0720602
0.0720111
0.0719579
0.0719002
0.071838
0.071771
0.0716991
0.0716219
0.0715394
0.0714514
0.0713578
0.0712583
0.0711529
0.0710415
0.070924
0.0708004
0.0706706
0.0705347
0.0703926
0.0702446
0.0700906
0.0699308
0.0697654
0.0695946
0.0694187
0.069238
0.0690527
0.0688633
0.0686701
0.0684736
0.0682742
0.0680725
0.067869
0.0676642
0.0674588
0.0672533
0.0670484
0.0668447
0.0666429
0.0664435
0.0662473
0.0660549
0.0658669
0.0656839
0.0655065
0.0653352
0.0651705
0.0650128
0.0648625
0.0647199
0.0645852
0.0644587
0.0643403
0.06423
0.0641277
0.0640333
0.0639463
0.0638665
0.0637933
0.0637261
0.0636642
0.0636071
0.0635538
0.0635036
0.0634556
0.0634088
0.0633625
0.0633156
0.0632674
0.063217
0.0631635
0.0631062
0.0630445
0.0629776
0.0629051
0.0628265
0.0627415
0.0626497
0.0625509
0.0624451
0.0623321
0.0622122
0.0620853
0.0619518
0.0618119
0.061666
0.0615143
0.0613575
0.061196
0.0610304
0.0608611
0.0606889
0.0605143
0.060338
0.0601606
0.0599829
0.0598054
0.059629
0.0594542
0.0592817
0.0591122
0.0589464
0.0587849
0.0586283
0.0584774
0.0583326
0.0581947
0.0580641
0.0579414
0.0578272
0.0577219
0.0576261
0.05754
0.0574643
0.0573992
0.057345
0.0573021
0.0572707
0.057251
0.0572432
0.0572473
0.0572635
0.0572916
0.0573316
0.0573835
0.0574469
0.0575218
0.0576077
0.0577043
0.0578111
0.0579278
0.0580537
0.0581884
0.058331
0.0584811
0.0586378
0.0588005
0.0589684
0.0591407
0.0593167
0.0594956
0.0596766
0.059859
0.060042
0.0602249
0.0604071
0.0605879
0.0607666
0.0609428
0.0611159
0.0612854
0.061451
0.0616123
0.061769
0.0619207
0.0620674
0.0622087
0.0623447
0.0624752
0.0626001
0.0627195
0.0628333
0.0629417
0.0630447
0.0631424
0.0632349
0.0633223
0.0634049
0.0634828
0.063556
0.063625
0.0636897
0.0637504
0.0638073
0.0638605
0.0639103
0.0639568
0.0640003
0.0640408
0.0640786
0.0641138
0.0641465
0.064177
0.0642054
0.0642317
0.0642562
0.064279
0.0643001
0.0643198
0.064338
0.064355
0.0643707
0.0643853
0.0643989
0.0644115
0.0644233
0.0644342
0.0644443
0.0644538
0.0644626
0.0644708
0.0644784
0.0644855
0.0644922
0.0644984
0.0645042
0.0645097
0.0645148
0.0645196
0.0645241
0.0645283
0.0645323
0.064536
0.0645395
0.0645429
0.064546
0.064549
0.0645518
0.0645545
0.064557
0.0645594
0.0645617
0.0645639
0.064566
0.064568
0.0645699
0.0645718
0.0645735
0.0645752
0.0645768
0.0645784
0.0645799
0.0645813
0.0645827
0.0645841
0.0645854
0.0645867
0.0645879
0.0645891
0.0645903
0.0645915
0.0645926
0.0645937
0.0645948
0.0645959
0.064597
0.064598
0.0645991
0.0646001
0.0646011
0.0646022
0.0646032
0.0646042
0.0646053
0.0646063
0.0646073
0.0646084
0.0646094
0.0646104
0.0646112
0.0646116
0.0646116
0.0616764
0.0623977
0.0632483
0.064175
0.0651182
0.0660268
0.0668623
0.0676037
0.0682455
0.0687918
0.0692518
0.0696364
0.0699572
0.0702247
0.0704484
0.0706361
0.0707945
0.070929
0.0710439
0.0711428
0.0712286
0.0713036
0.0713697
0.0714283
0.0714808
0.071528
0.0715709
0.07161
0.0716459
0.0716791
0.0717099
0.0717387
0.0717657
0.0717911
0.0718151
0.0718378
0.0718595
0.0718801
0.0718999
0.0719189
0.0719371
0.0719547
0.0719718
0.0719882
0.0720042
0.0720198
0.072035
0.0720498
0.0720642
0.0720784
0.0720923
0.0721058
0.0721192
0.0721322
0.0721451
0.0721577
0.07217
0.0721822
0.0721941
0.0722057
0.0722172
0.0722284
0.0722395
0.0722503
0.0722609
0.0722714
0.0722816
0.0722917
0.0723017
0.0723114
0.072321
0.0723305
0.0723399
0.0723491
0.0723582
0.0723672
0.072376
0.0723848
0.0723934
0.0724018
0.0724102
0.0724184
0.0724265
0.0724344
0.0724422
0.0724498
0.0724573
0.0724646
0.0724717
0.0724786
0.0724854
0.072492
0.0724984
0.0725046
0.0725107
0.0725165
0.0725222
0.0725276
0.0725329
0.0725379
0.0725427
0.0725473
0.0725517
0.0725557
0.0725595
0.072563
0.0725661
0.0725689
0.0725713
0.0725733
0.0725748
0.0725759
0.0725764
0.0725763
0.0725757
0.0725743
0.0725723
0.0725694
0.0725657
0.072561
0.0725554
0.0725487
0.0725407
0.0725315
0.0725209
0.0725088
0.0724951
0.0724796
0.0724622
0.0724427
0.072421
0.072397
0.0723703
0.072341
0.0723087
0.0722733
0.0722345
0.0721922
0.0721462
0.0720963
0.0720422
0.0719836
0.0719206
0.0718527
0.0717798
0.0717018
0.0716183
0.0715294
0.0714347
0.0713342
0.0712278
0.0711152
0.0709965
0.0708716
0.0707405
0.0706032
0.0704596
0.0703099
0.0701541
0.0699924
0.0698249
0.0696519
0.0694736
0.0692902
0.069102
0.0689095
0.068713
0.068513
0.0683098
0.068104
0.0678961
0.0676867
0.0674763
0.0672655
0.0670551
0.0668455
0.0666375
0.0664317
0.0662287
0.0660293
0.0658341
0.0656436
0.0654586
0.0652794
0.0651068
0.064941
0.0647827
0.064632
0.0644894
0.064355
0.064229
0.0641113
0.064002
0.0639008
0.0638076
0.063722
0.0636436
0.0635719
0.0635062
0.0634459
0.0633903
0.0633384
0.0632896
0.063243
0.0631975
0.0631524
0.0631067
0.0630596
0.0630102
0.0629578
0.0629016
0.062841
0.0627753
0.0627041
0.062627
0.0625435
0.0624535
0.0623568
0.0622533
0.0621431
0.0620262
0.0619027
0.061773
0.0616374
0.0614961
0.0613497
0.0611986
0.0610434
0.0608844
0.0607225
0.0605581
0.0603919
0.0602246
0.0600567
0.0598891
0.0597222
0.0595569
0.0593937
0.0592334
0.0590766
0.0589239
0.0587761
0.0586336
0.0584971
0.0583672
0.0582445
0.0581295
0.0580226
0.0579245
0.0578355
0.0577561
0.0576867
0.0576275
0.0575791
0.0575415
0.057515
0.0574999
0.0574962
0.0575041
0.0575235
0.0575545
0.0575969
0.0576506
0.0577154
0.0577911
0.0578773
0.0579737
0.0580798
0.0581951
0.0583192
0.0584514
0.0585912
0.0587378
0.0588906
0.0590489
0.059212
0.0593791
0.0595495
0.0597224
0.0598972
0.060073
0.0602492
0.0604251
0.0606001
0.0607736
0.060945
0.0611138
0.0612795
0.0614416
0.0615999
0.061754
0.0619035
0.0620483
0.0621881
0.0623228
0.0624524
0.0625766
0.0626955
0.0628091
0.0629174
0.0630205
0.0631184
0.0632112
0.0632991
0.0633822
0.0634607
0.0635347
0.0636043
0.0636697
0.0637312
0.0637889
0.0638429
0.0638935
0.0639408
0.0639849
0.0640262
0.0640647
0.0641006
0.064134
0.0641651
0.0641941
0.0642211
0.0642461
0.0642694
0.0642911
0.0643112
0.0643299
0.0643473
0.0643634
0.0643784
0.0643923
0.0644052
0.0644173
0.0644285
0.0644389
0.0644486
0.0644576
0.064466
0.0644738
0.0644811
0.0644879
0.0644943
0.0645002
0.0645058
0.064511
0.0645159
0.0645205
0.0645248
0.0645289
0.0645327
0.0645363
0.0645397
0.0645429
0.0645459
0.0645488
0.0645515
0.0645541
0.0645565
0.0645588
0.0645611
0.0645632
0.0645652
0.0645671
0.064569
0.0645707
0.0645724
0.064574
0.0645756
0.0645771
0.0645786
0.06458
0.0645813
0.0645827
0.0645839
0.0645852
0.0645864
0.0645876
0.0645887
0.0645899
0.064591
0.0645921
0.0645931
0.0645942
0.0645952
0.0645963
0.0645973
0.0645983
0.0645993
0.0646003
0.0646014
0.0646024
0.0646034
0.0646044
0.0646054
0.0646065
0.0646075
0.0646084
0.0646092
0.0646096
0.0646096
0.0614873
0.0618998
0.062411
0.0630131
0.0636865
0.0644037
0.0651335
0.0658478
0.0665254
0.0671527
0.0677228
0.0682336
0.0686865
0.0690854
0.0694351
0.069741
0.0700082
0.0702418
0.0704463
0.0706257
0.0707835
0.0709227
0.0710461
0.0711557
0.0712535
0.071341
0.0714198
0.0714909
0.0715554
0.071614
0.0716675
0.0717166
0.0717616
0.0718033
0.0718418
0.0718775
0.0719108
0.0719419
0.071971
0.0719983
0.0720241
0.0720484
0.0720714
0.0720932
0.072114
0.0721339
0.0721529
0.0721711
0.0721885
0.0722054
0.0722216
0.0722372
0.0722524
0.072267
0.0722812
0.072295
0.0723083
0.0723213
0.0723339
0.0723461
0.072358
0.0723695
0.0723808
0.0723917
0.0724024
0.0724128
0.0724229
0.0724328
0.0724425
0.072452
0.0724613
0.0724704
0.0724793
0.072488
0.0724966
0.0725051
0.0725134
0.0725215
0.0725296
0.0725374
0.0725451
0.0725527
0.0725601
0.0725674
0.0725745
0.0725814
0.0725881
0.0725947
0.0726011
0.0726073
0.0726133
0.0726192
0.0726248
0.0726303
0.0726356
0.0726407
0.0726456
0.0726502
0.0726547
0.072659
0.0726631
0.0726669
0.0726705
0.0726738
0.0726768
0.0726795
0.0726819
0.0726839
0.0726856
0.0726868
0.0726876
0.0726879
0.0726877
0.0726869
0.0726855
0.0726835
0.0726807
0.0726771
0.0726727
0.0726673
0.072661
0.0726535
0.0726449
0.072635
0.0726238
0.072611
0.0725966
0.0725805
0.0725624
0.0725424
0.0725201
0.0724954
0.0724683
0.0724384
0.0724055
0.0723696
0.0723304
0.0722877
0.0722413
0.0721909
0.0721364
0.0720775
0.072014
0.0719458
0.0718726
0.0717942
0.0717105
0.0716212
0.0715262
0.0714253
0.0713185
0.0712055
0.0710863
0.0709609
0.0708292
0.0706911
0.0705467
0.070396
0.0702392
0.0700762
0.0699073
0.0697327
0.0695525
0.0693671
0.0691766
0.0689815
0.0687821
0.0685788
0.0683721
0.0681624
0.0679503
0.0677362
0.0675208
0.0673047
0.0670884
0.0668727
0.066658
0.0664453
0.066235
0.0660278
0.0658245
0.0656256
0.0654318
0.0652437
0.0650619
0.0648868
0.064719
0.0645589
0.0644068
0.064263
0.0641278
0.0640011
0.0638831
0.0637737
0.0636728
0.06358
0.0634951
0.0634175
0.0633468
0.0632824
0.0632235
0.0631694
0.0631192
0.0630723
0.0630275
0.0629842
0.0629413
0.0628979
0.0628533
0.0628065
0.0627569
0.0627036
0.0626461
0.0625838
0.0625161
0.0624427
0.0623633
0.0622776
0.0621855
0.0620869
0.0619819
0.0618706
0.0617532
0.0616299
0.061501
0.061367
0.0612282
0.0610852
0.0609385
0.0607886
0.0606361
0.0604817
0.0603258
0.0601693
0.0600128
0.0598569
0.0597022
0.0595495
0.0593993
0.0592524
0.0591094
0.0589709
0.0588375
0.0587098
0.0585884
0.0584738
0.0583666
0.0582673
0.0581763
0.0580941
0.0580211
0.0579577
0.0579042
0.0578609
0.0578281
0.057806
0.0577947
0.0577943
0.057805
0.0578268
0.0578595
0.0579031
0.0579575
0.0580224
0.0580976
0.0581827
0.0582775
0.0583813
0.0584939
0.0586146
0.0587429
0.0588783
0.0590199
0.0591674
0.0593198
0.0594766
0.059637
0.0598003
0.0599659
0.060133
0.060301
0.0604692
0.0606369
0.0608036
0.0609688
0.0611318
0.0612923
0.0614497
0.0616036
0.0617538
0.0619
0.0620417
0.0621789
0.0623114
0.062439
0.0625616
0.0626792
0.0627918
0.0628992
0.0630017
0.0630992
0.0631918
0.0632797
0.0633628
0.0634414
0.0635156
0.0635856
0.0636515
0.0637134
0.0637715
0.0638261
0.0638772
0.0639251
0.0639699
0.0640117
0.0640508
0.0640873
0.0641213
0.0641529
0.0641824
0.0642099
0.0642355
0.0642593
0.0642814
0.0643019
0.064321
0.0643388
0.0643553
0.0643706
0.0643849
0.0643981
0.0644104
0.0644219
0.0644326
0.0644425
0.0644517
0.0644603
0.0644683
0.0644758
0.0644828
0.0644893
0.0644954
0.0645011
0.0645064
0.0645114
0.0645161
0.0645205
0.0645246
0.0645285
0.0645322
0.0645356
0.0645389
0.0645419
0.0645449
0.0645476
0.0645502
0.0645527
0.0645551
0.0645573
0.0645594
0.0645615
0.0645634
0.0645653
0.0645671
0.0645688
0.0645704
0.064572
0.0645735
0.064575
0.0645764
0.0645778
0.0645791
0.0645804
0.0645816
0.0645828
0.064584
0.0645851
0.0645863
0.0645874
0.0645885
0.0645895
0.0645906
0.0645916
0.0645926
0.0645936
0.0645946
0.0645956
0.0645966
0.0645976
0.0645986
0.0645996
0.0646006
0.0646016
0.0646026
0.0646037
0.0646047
0.0646056
0.0646064
0.0646068
0.0646068
0.061393
0.0616397
0.0619448
0.0623135
0.0627461
0.0632366
0.0637731
0.0643394
0.0649189
0.0654961
0.0660583
0.0665955
0.067101
0.067571
0.0680038
0.0683995
0.0687592
0.069085
0.0693794
0.069645
0.0698844
0.0701003
0.070295
0.0704709
0.07063
0.0707742
0.070905
0.071024
0.0711324
0.0712314
0.071322
0.0714052
0.0714816
0.071552
0.071617
0.0716771
0.0717328
0.0717846
0.0718327
0.0718777
0.0719196
0.071959
0.0719958
0.0720305
0.0720632
0.072094
0.0721232
0.0721509
0.0721771
0.0722021
0.0722258
0.0722485
0.0722702
0.0722909
0.0723107
0.0723298
0.072348
0.0723655
0.0723823
0.0723985
0.072414
0.072429
0.0724434
0.0724573
0.0724707
0.0724837
0.0724962
0.0725083
0.07252
0.0725314
0.0725424
0.0725532
0.0725636
0.0725738
0.0725837
0.0725933
0.0726027
0.0726119
0.0726209
0.0726296
0.0726381
0.0726464
0.0726545
0.0726623
0.0726699
0.0726773
0.0726845
0.0726915
0.0726982
0.0727047
0.072711
0.0727171
0.0727229
0.0727285
0.0727339
0.0727391
0.0727441
0.0727488
0.0727533
0.0727575
0.0727616
0.0727653
0.0727688
0.072772
0.0727749
0.0727775
0.0727798
0.0727816
0.0727831
0.0727842
0.0727848
0.0727849
0.0727844
0.0727834
0.0727818
0.0727795
0.0727765
0.0727726
0.072768
0.0727624
0.0727558
0.0727481
0.0727392
0.0727291
0.0727176
0.0727046
0.07269
0.0726737
0.0726555
0.0726353
0.0726129
0.0725882
0.0725609
0.072531
0.0724982
0.0724623
0.0724231
0.0723805
0.0723342
0.072284
0.0722297
0.0721711
0.072108
0.0720401
0.0719673
0.0718893
0.071806
0.0717172
0.0716226
0.0715222
0.0714158
0.0713033
0.0711845
0.0710594
0.070928
0.0707901
0.0706458
0.0704952
0.0703382
0.0701749
0.0700056
0.0698302
0.0696491
0.0694625
0.0692706
0.0690737
0.0688722
0.0686665
0.068457
0.0682441
0.0680284
0.0678102
0.0675904
0.0673693
0.0671476
0.0669259
0.0667049
0.0664853
0.0662676
0.0660527
0.0658412
0.0656337
0.0654309
0.0652335
0.065042
0.0648571
0.0646792
0.0645089
0.0643465
0.0641925
0.0640471
0.0639106
0.0637829
0.0636643
0.0635546
0.0634536
0.0633612
0.0632769
0.0632003
0.0631308
0.0630679
0.0630108
0.0629588
0.062911
0.0628667
0.0628248
0.0627846
0.062745
0.0627053
0.0626645
0.0626219
0.0625766
0.0625279
0.0624752
0.062418
0.0623556
0.0622879
0.0622143
0.0621348
0.0620492
0.0619574
0.0618595
0.0617557
0.061646
0.0615308
0.0614105
0.0612853
0.0611559
0.0610225
0.0608858
0.0607463
0.0606046
0.0604613
0.060317
0.0601725
0.0600282
0.0598849
0.0597432
0.0596038
0.0594673
0.0593343
0.0592054
0.0590813
0.0589626
0.0588498
0.0587434
0.0586439
0.058552
0.0584679
0.0583922
0.0583252
0.0582674
0.058219
0.0581803
0.0581516
0.058133
0.0581247
0.0581269
0.0581394
0.0581625
0.058196
0.0582397
0.0582936
0.0583575
0.0584309
0.0585138
0.0586056
0.058706
0.0588145
0.0589305
0.0590537
0.0591833
0.0593188
0.0594595
0.0596049
0.0597542
0.0599067
0.0600619
0.0602191
0.0603776
0.0605367
0.0606959
0.0608546
0.0610122
0.0611683
0.0613222
0.0614737
0.0616222
0.0617674
0.061909
0.0620467
0.0621803
0.0623095
0.0624343
0.0625545
0.0626699
0.0627807
0.0628866
0.0629878
0.0630843
0.0631761
0.0632633
0.063346
0.0634244
0.0634984
0.0635684
0.0636343
0.0636964
0.0637547
0.0638096
0.0638611
0.0639093
0.0639545
0.0639967
0.0640363
0.0640732
0.0641076
0.0641398
0.0641697
0.0641976
0.0642236
0.0642479
0.0642704
0.0642913
0.0643108
0.0643289
0.0643458
0.0643614
0.064376
0.0643896
0.0644022
0.0644139
0.0644248
0.0644349
0.0644444
0.0644532
0.0644614
0.064469
0.0644762
0.0644828
0.064489
0.0644949
0.0645003
0.0645054
0.0645102
0.0645147
0.0645189
0.0645229
0.0645266
0.0645301
0.0645334
0.0645366
0.0645395
0.0645423
0.064545
0.0645475
0.0645499
0.0645522
0.0645543
0.0645564
0.0645583
0.0645602
0.064562
0.0645638
0.0645654
0.064567
0.0645685
0.06457
0.0645714
0.0645728
0.0645741
0.0645754
0.0645766
0.0645778
0.064579
0.0645802
0.0645813
0.0645824
0.0645835
0.0645845
0.0645856
0.0645866
0.0645876
0.0645886
0.0645896
0.0645906
0.0645916
0.0645926
0.0645935
0.0645945
0.0645955
0.0645965
0.0645975
0.0645985
0.0645995
0.0646005
0.0646014
0.0646021
0.0646025
0.0646025
0.0613428
0.0615009
0.061691
0.0619184
0.0621877
0.0625015
0.0628589
0.0632554
0.063684
0.0641363
0.0646029
0.0650747
0.0655437
0.0660028
0.0664464
0.0668706
0.0672726
0.0676507
0.0680044
0.0683336
0.0686391
0.0689217
0.0691826
0.0694234
0.0696452
0.0698497
0.0700381
0.0702118
0.0703721
0.07052
0.0706567
0.0707831
0.0709002
0.0710087
0.0711095
0.0712031
0.0712903
0.0713715
0.0714473
0.0715181
0.0715844
0.0716464
0.0717047
0.0717594
0.0718109
0.0718595
0.0719053
0.0719486
0.0719895
0.0720284
0.0720652
0.0721002
0.0721335
0.0721651
0.0721953
0.0722241
0.0722516
0.0722778
0.0723029
0.0723268
0.0723498
0.0723717
0.0723928
0.072413
0.0724323
0.0724509
0.0724688
0.0724859
0.0725025
0.0725184
0.0725338
0.0725487
0.072563
0.0725769
0.0725903
0.0726033
0.072616
0.0726282
0.07264
0.0726515
0.0726627
0.0726734
0.0726839
0.072694
0.0727038
0.0727132
0.0727224
0.0727312
0.0727397
0.0727479
0.0727557
0.0727633
0.0727706
0.0727776
0.0727843
0.0727907
0.0727968
0.0728027
0.0728083
0.0728135
0.0728185
0.0728232
0.0728275
0.0728316
0.0728353
0.0728386
0.0728416
0.0728441
0.0728462
0.0728479
0.0728491
0.0728498
0.0728499
0.0728493
0.0728482
0.0728464
0.0728438
0.0728404
0.0728361
0.0728309
0.0728247
0.0728174
0.072809
0.0727993
0.0727882
0.0727756
0.0727614
0.0727455
0.0727278
0.072708
0.0726861
0.0726619
0.0726353
0.0726059
0.0725738
0.0725386
0.0725002
0.0724584
0.0724129
0.0723637
0.0723104