/*--------------------------------*- C++ -*----------------------------------*\
| =========                 |                                                 |
| \\      /  F ield         | OpenFOAM: The Open Source CFD Toolbox           |
|  \\    /   O peration     | Version:  2506                                  |
|   \\  /    A nd           | Website:  www.openfoam.com                      |
|    \\/     M anipulation  |                                                 |
\*---------------------------------------------------------------------------*/
FoamFile
{
    version     2.0;
    format      ascii;
    arch        "LSB;label=32;scalar=64";
    class       volScalarField;
    location    "200";
    object      p;
}
// * * * * * * * * * * * * * * * * * * * * * * * * * * * * * * * * * * * * * //

dimensions      [0 2 -2 0 0 0 0];

internalField   nonuniform List<scalar> 
131949
(
-34.5962
-26.9878
-23.3094
-21.9392
-20.7115
-19.5663
-18.6575
-17.9089
-17.2504
-16.6635
-16.1382
-15.6627
-15.2279
-14.8276
-14.4567
-14.1114
-13.7883
-13.4848
-13.1987
-12.9282
-12.6718
-12.4279
-12.1955
-11.9737
-11.7614
-11.558
-11.3628
-11.1751
-10.9944
-10.8203
-10.6523
-10.4899
-10.333
-10.1811
-10.0339
-9.89115
-9.75266
-9.61818
-9.48749
-9.3604
-9.23673
-9.11633
-8.99904
-8.88472
-8.77323
-8.66445
-8.55828
-8.45459
-8.35329
-8.25429
-8.1575
-8.06283
-7.9702
-7.87954
-7.79078
-7.70386
-7.6187
-7.53526
-7.45347
-7.37329
-7.29465
-7.21752
-7.14184
-7.06758
-6.99468
-6.92312
-6.85285
-6.78384
-6.71604
-6.64944
-6.58399
-6.51967
-6.45644
-6.39429
-6.33317
-6.27307
-6.21396
-6.15581
-6.09861
-6.04233
-5.98695
-5.93244
-5.8788
-5.82599
-5.77401
-5.72283
-5.67244
-5.62281
-5.57394
-5.52581
-5.4784
-5.4317
-5.38569
-5.34036
-5.2957
-5.2517
-5.20833
-5.1656
-5.12348
-5.08197
-5.04105
-5.00072
-4.96096
-4.92176
-4.88312
-4.84502
-4.80745
-4.77041
-4.73388
-4.69785
-4.66232
-4.62728
-4.59272
-4.55863
-4.52501
-4.49183
-4.45911
-4.42683
-4.39498
-4.36355
-4.33254
-4.30195
-4.27175
-4.24196
-4.21255
-4.18353
-4.15488
-4.12661
-4.0987
-4.07114
-4.04394
-4.01707
-3.99055
-3.96436
-3.93849
-3.91295
-3.88771
-3.86279
-3.83816
-3.81383
-3.78979
-3.76603
-3.74254
-3.71933
-3.69639
-3.6737
-3.65126
-3.62908
-3.60713
-3.58542
-3.56395
-3.54269
-3.52165
-3.50083
-3.48021
-3.45979
-3.43956
-3.41953
-3.39967
-3.37998
-3.36047
-3.34111
-3.32191
-3.30285
-3.28393
-3.26514
-3.24647
-3.22792
-3.20947
-3.19111
-3.17284
-3.15464
-3.13651
-3.11844
-3.10041
-3.08241
-3.06443
-3.04646
-3.02848
-3.01049
-2.99247
-2.97441
-2.95629
-2.9381
-2.91984
-2.90148
-2.88301
-2.86442
-2.8457
-2.82684
-2.80783
-2.78866
-2.76931
-2.74978
-2.73007
-2.71017
-2.69008
-2.66979
-2.6493
-2.62863
-2.60776
-2.58672
-2.5655
-2.54412
-2.52259
-2.50092
-2.47914
-2.45725
-2.43529
-2.41327
-2.39121
-2.36914
-2.34708
-2.32506
-2.3031
-2.28123
-2.25947
-2.23785
-2.21639
-2.19512
-2.17405
-2.15321
-2.13262
-2.11229
-2.09225
-2.0725
-2.05305
-2.03392
-2.01512
-1.99665
-1.97852
-1.96073
-1.94328
-1.92617
-1.9094
-1.89296
-1.87685
-1.86106
-1.84559
-1.83043
-1.81556
-1.80098
-1.78666
-1.77261
-1.75881
-1.74524
-1.73189
-1.71874
-1.70579
-1.69301
-1.6804
-1.66793
-1.6556
-1.64339
-1.63129
-1.61928
-1.60735
-1.59549
-1.58369
-1.57193
-1.56021
-1.54852
-1.53685
-1.52518
-1.51352
-1.50185
-1.49018
-1.47848
-1.46677
-1.45503
-1.44326
-1.43146
-1.41963
-1.40777
-1.39587
-1.38393
-1.37196
-1.35995
-1.34791
-1.33584
-1.32374
-1.3116
-1.29944
-1.28725
-1.27504
-1.26281
-1.25057
-1.2383
-1.22603
-1.21374
-1.20145
-1.18915
-1.17685
-1.16455
-1.15225
-1.13996
-1.12767
-1.1154
-1.10313
-1.09088
-1.07864
-1.06643
-1.05423
-1.04205
-1.02989
-1.01775
-1.00564
-0.993549
-0.981487
-0.969452
-0.957445
-0.945466
-0.933516
-0.921595
-0.909705
-0.897846
-0.886018
-0.874221
-0.862457
-0.850724
-0.839024
-0.827356
-0.815721
-0.804119
-0.79255
-0.781014
-0.769511
-0.758041
-0.746603
-0.735199
-0.723828
-0.71249
-0.701184
-0.689911
-0.67867
-0.667462
-0.656286
-0.645141
-0.634029
-0.622948
-0.611898
-0.600879
-0.589891
-0.578933
-0.568006
-0.557109
-0.546241
-0.535403
-0.524594
-0.513814
-0.503062
-0.492338
-0.481642
-0.470974
-0.460332
-0.449718
-0.439129
-0.428567
-0.41803
-0.407519
-0.397032
-0.38657
-0.376132
-0.365717
-0.355326
-0.344958
-0.334612
-0.324288
-0.313986
-0.303706
-0.293446
-0.283208
-0.272989
-0.26279
-0.25261
-0.24245
-0.232308
-0.222185
-0.21208
-0.201993
-0.191923
-0.181871
-0.171836
-0.161818
-0.151816
-0.141832
-0.131865
-0.121915
-0.111983
-0.102069
-0.0921735
-0.0822977
-0.0724426
-0.0626104
-0.0528013
-0.0430262
-0.0332585
-0.0236287
-0.0136384
-0.00563745
-27.0475
-24.4826
-22.5173
-21.3635
-20.3247
-19.3409
-18.5054
-17.7938
-17.1626
-16.5951
-16.0831
-15.6172
-15.1898
-14.7951
-14.4288
-14.087
-13.7669
-13.4659
-13.1819
-12.9131
-12.6581
-12.4155
-12.1842
-11.9633
-11.7519
-11.5493
-11.3547
-11.1676
-10.9874
-10.8138
-10.6461
-10.4842
-10.3276
-10.176
-10.0291
-9.88663
-9.74838
-9.61412
-9.48363
-9.35674
-9.23325
-9.11301
-8.99587
-8.88169
-8.77033
-8.66168
-8.55562
-8.45204
-8.35085
-8.25194
-8.15524
-8.06065
-7.9681
-7.87752
-7.78883
-7.70197
-7.61688
-7.5335
-7.45177
-7.37164
-7.29305
-7.21597
-7.14034
-7.06612
-6.99326
-6.92174
-6.85151
-6.78253
-6.71478
-6.64821
-6.58279
-6.5185
-6.4553
-6.39317
-6.33208
-6.27201
-6.21292
-6.1548
-6.09762
-6.04136
-5.986
-5.93152
-5.8779
-5.82511
-5.77315
-5.72198
-5.67161
-5.622
-5.57315
-5.52503
-5.47763
-5.43095
-5.38495
-5.33964
-5.29499
-5.251
-5.20764
-5.16492
-5.12282
-5.08132
-5.04041
-5.00009
-4.96034
-4.92115
-4.88252
-4.84442
-4.80686
-4.76983
-4.7333
-4.69729
-4.66176
-4.62673
-4.59217
-4.55809
-4.52447
-4.4913
-4.45858
-4.4263
-4.39446
-4.36303
-4.33203
-4.30144
-4.27125
-4.24145
-4.21205
-4.18302
-4.15438
-4.1261
-4.09819
-4.07063
-4.04342
-4.01656
-3.99003
-3.96384
-3.93797
-3.91241
-3.88717
-3.86224
-3.83761
-3.81327
-3.78921
-3.76545
-3.74195
-3.71873
-3.69577
-3.67307
-3.65062
-3.62842
-3.60645
-3.58473
-3.56323
-3.54195
-3.52089
-3.50004
-3.4794
-3.45895
-3.4387
-3.41863
-3.39874
-3.37902
-3.35947
-3.34008
-3.32084
-3.30174
-3.28278
-3.26395
-3.24524
-3.22664
-3.20814
-3.18973
-3.17142
-3.15317
-3.13499
-3.11687
-3.09879
-3.08074
-3.06271
-3.04469
-3.02667
-3.00864
-2.99058
-2.97248
-2.95433
-2.93611
-2.91782
-2.89943
-2.88095
-2.86235
-2.84363
-2.82477
-2.80576
-2.7866
-2.76728
-2.74778
-2.7281
-2.70824
-2.68819
-2.66796
-2.64753
-2.62692
-2.60613
-2.58516
-2.56403
-2.54273
-2.52129
-2.49971
-2.47803
-2.45624
-2.43437
-2.41245
-2.39049
-2.36852
-2.34656
-2.32464
-2.30278
-2.28101
-2.25934
-2.23782
-2.21645
-2.19527
-2.17429
-2.15354
-2.13302
-2.11278
-2.0928
-2.07313
-2.05375
-2.03469
-2.01595
-1.99754
-1.97946
-1.96172
-1.94432
-1.92726
-1.91053
-1.89413
-1.87806
-1.86231
-1.84688
-1.83174
-1.8169
-1.80234
-1.78805
-1.77401
-1.76022
-1.74667
-1.73333
-1.72019
-1.70725
-1.69447
-1.68186
-1.6694
-1.65706
-1.64485
-1.63274
-1.62072
-1.60878
-1.59691
-1.5851
-1.57333
-1.56159
-1.54989
-1.53819
-1.52651
-1.51483
-1.50314
-1.49144
-1.47972
-1.46798
-1.45622
-1.44442
-1.4326
-1.42074
-1.40885
-1.39692
-1.38495
-1.37296
-1.36092
-1.34885
-1.33675
-1.32462
-1.31246
-1.30027
-1.28805
-1.27582
-1.26356
-1.25129
-1.239
-1.2267
-1.21439
-1.20207
-1.18975
-1.17743
-1.16511
-1.15279
-1.14048
-1.12818
-1.11589
-1.1036
-1.09134
-1.07909
-1.06685
-1.05464
-1.04244
-1.03027
-1.01812
-1.006
-0.993896
-0.981823
-0.969778
-0.95776
-0.945771
-0.933812
-0.921883
-0.909985
-0.898117
-0.886282
-0.874478
-0.862706
-0.850966
-0.83926
-0.827586
-0.815945
-0.804337
-0.792763
-0.781222
-0.769714
-0.758239
-0.746797
-0.735389
-0.724014
-0.712671
-0.701362
-0.690085
-0.678841
-0.66763
-0.65645
-0.645303
-0.634188
-0.623104
-0.612051
-0.60103
-0.59004
-0.57908
-0.568151
-0.557252
-0.546383
-0.535543
-0.524732
-0.51395
-0.503197
-0.492472
-0.481775
-0.471105
-0.460463
-0.449847
-0.439258
-0.428695
-0.418157
-0.407645
-0.397158
-0.386695
-0.376256
-0.365841
-0.35545
-0.345082
-0.334736
-0.324412
-0.31411
-0.30383
-0.29357
-0.283331
-0.273113
-0.262914
-0.252735
-0.242574
-0.232433
-0.22231
-0.212206
-0.202119
-0.19205
-0.181998
-0.171963
-0.161945
-0.151945
-0.141961
-0.131994
-0.122044
-0.112112
-0.102197
-0.0923015
-0.0824248
-0.0725684
-0.0627338
-0.0529216
-0.0431401
-0.0333683
-0.0237114
-0.0137629
-0.00571391
-23.8372
-23.0366
-21.7981
-20.7498
-19.8539
-19.0206
-18.2718
-17.6109
-17.0176
-16.4788
-15.9875
-15.5373
-15.122
-14.737
-14.3784
-14.0429
-13.728
-13.4313
-13.1509
-12.8852
-12.6328
-12.3926
-12.1633
-11.9441
-11.7343
-11.5329
-11.3396
-11.1535
-10.9743
-10.8015
-10.6347
-10.4735
-10.3175
-10.1665
-10.0201
-9.87817
-9.74037
-9.60652
-9.47642
-9.34988
-9.22672
-9.10678
-8.98993
-8.87601
-8.7649
-8.65647
-8.55063
-8.44725
-8.34625
-8.24752
-8.15098
-8.05655
-7.96415
-7.87371
-7.78516
-7.69842
-7.61345
-7.53018
-7.44856
-7.36853
-7.29004
-7.21305
-7.1375
-7.06337
-6.99059
-6.91915
-6.84899
-6.78008
-6.71239
-6.64588
-6.58053
-6.5163
-6.45316
-6.39108
-6.33004
-6.27002
-6.21098
-6.1529
-6.09577
-6.03955
-5.98423
-5.92979
-5.8762
-5.82345
-5.77152
-5.72039
-5.67005
-5.62048
-5.57165
-5.52356
-5.4762
-5.42954
-5.38357
-5.33828
-5.29366
-5.24969
-5.20636
-5.16366
-5.12158
-5.0801
-5.03921
-4.99891
-4.95918
-4.92001
-4.8814
-4.84332
-4.80578
-4.76876
-4.73225
-4.69625
-4.66074
-4.62572
-4.59118
-4.55711
-4.5235
-4.49035
-4.45764
-4.42538
-4.39354
-4.36213
-4.33114
-4.30055
-4.27037
-4.24059
-4.21119
-4.18218
-4.15354
-4.12527
-4.09736
-4.06981
-4.04261
-4.01575
-3.98923
-3.96304
-3.93717
-3.91162
-3.88638
-3.86145
-3.83682
-3.81248
-3.78843
-3.76466
-3.74116
-3.71793
-3.69497
-3.67227
-3.64981
-3.6276
-3.60563
-3.5839
-3.56239
-3.54111
-3.52003
-3.49917
-3.47852
-3.45806
-3.43779
-3.4177
-3.39779
-3.37806
-3.35848
-3.33907
-3.3198
-3.30068
-3.28169
-3.26283
-3.24409
-3.22546
-3.20694
-3.1885
-3.17015
-3.15187
-3.13366
-3.11551
-3.09739
-3.07931
-3.06125
-3.04321
-3.02516
-3.0071
-2.98901
-2.97089
-2.95272
-2.93449
-2.91618
-2.89779
-2.87931
-2.86071
-2.842
-2.82315
-2.80416
-2.78503
-2.76573
-2.74627
-2.72663
-2.70682
-2.68682
-2.66665
-2.64629
-2.62575
-2.60503
-2.58414
-2.56308
-2.54187
-2.52051
-2.49903
-2.47743
-2.45574
-2.43396
-2.41213
-2.39027
-2.36839
-2.34652
-2.32469
-2.30292
-2.28123
-2.25966
-2.23821
-2.21693
-2.19582
-2.17492
-2.15423
-2.13379
-2.11361
-2.0937
-2.07408
-2.05476
-2.03575
-2.01706
-1.9987
-1.98067
-1.96297
-1.94561
-1.92858
-1.91189
-1.89552
-1.87948
-1.86376
-1.84834
-1.83322
-1.8184
-1.80385
-1.78957
-1.77555
-1.76177
-1.74822
-1.73489
-1.72175
-1.7088
-1.69603
-1.68341
-1.67094
-1.6586
-1.64637
-1.63425
-1.62222
-1.61027
-1.59838
-1.58655
-1.57476
-1.563
-1.55127
-1.53955
-1.52785
-1.51614
-1.50442
-1.49269
-1.48095
-1.46918
-1.45739
-1.44556
-1.43371
-1.42182
-1.4099
-1.39794
-1.38594
-1.37391
-1.36185
-1.34975
-1.33762
-1.32546
-1.31327
-1.30105
-1.28881
-1.27655
-1.26426
-1.25196
-1.23965
-1.22733
-1.21499
-1.20265
-1.19031
-1.17797
-1.16563
-1.15329
-1.14096
-1.12864
-1.11633
-1.10403
-1.09174
-1.07948
-1.06723
-1.055
-1.04279
-1.03061
-1.01845
-1.00631
-0.994198
-0.982114
-0.970058
-0.958031
-0.946033
-0.934065
-0.922127
-0.910221
-0.898346
-0.886502
-0.874691
-0.862913
-0.851167
-0.839454
-0.827775
-0.816128
-0.804515
-0.792935
-0.781389
-0.769877
-0.758398
-0.746952
-0.735539
-0.72416
-0.712814
-0.701502
-0.690222
-0.678974
-0.66776
-0.656578
-0.645428
-0.63431
-0.623224
-0.612169
-0.601146
-0.590154
-0.579192
-0.568261
-0.557361
-0.54649
-0.535649
-0.524837
-0.514054
-0.5033
-0.492574
-0.481875
-0.471205
-0.460562
-0.449946
-0.439356
-0.428792
-0.418254
-0.407742
-0.397255
-0.386792
-0.376353
-0.365938
-0.355547
-0.345179
-0.334833
-0.32451
-0.314208
-0.303928
-0.293669
-0.28343
-0.273212
-0.263014
-0.252836
-0.242676
-0.232535
-0.222413
-0.212309
-0.202223
-0.192155
-0.182103
-0.172069
-0.162052
-0.152052
-0.142068
-0.132101
-0.122151
-0.112219
-0.102304
-0.0924065
-0.0825279
-0.0726685
-0.0628296
-0.0530113
-0.0432204
-0.0334363
-0.0237533
-0.0137863
-0.00561243
-21.9609
-21.5974
-20.8106
-20.0058
-19.2846
-18.598
-17.9507
-17.3575
-16.8142
-16.3133
-15.8506
-15.4221
-15.024
-14.6526
-14.3049
-13.9784
-13.6709
-13.3804
-13.1053
-12.8441
-12.5956
-12.3586
-12.1323
-11.9156
-11.708
-11.5087
-11.3171
-11.1326
-10.9548
-10.7833
-10.6177
-10.4575
-10.3025
-10.1523
-10.0067
-9.86549
-9.72837
-9.59513
-9.4656
-9.33958
-9.21691
-9.09743
-8.98099
-8.86747
-8.75673
-8.64865
-8.54312
-8.44005
-8.33933
-8.24086
-8.14458
-8.05038
-7.95821
-7.86797
-7.77962
-7.69308
-7.60828
-7.52518
-7.44372
-7.36384
-7.2855
-7.20864
-7.13323
-7.05922
-6.98657
-6.91524
-6.84519
-6.77638
-6.70879
-6.64238
-6.57712
-6.51297
-6.44992
-6.38792
-6.32696
-6.26701
-6.20804
-6.15004
-6.09297
-6.03682
-5.98156
-5.92718
-5.87365
-5.82095
-5.76908
-5.718
-5.66771
-5.61818
-5.5694
-5.52136
-5.47403
-5.42742
-5.38149
-5.33624
-5.29166
-5.24773
-5.20443
-5.16177
-5.11972
-5.07827
-5.03742
-4.99715
-4.95745
-4.91831
-4.87972
-4.84168
-4.80416
-4.76717
-4.73069
-4.69471
-4.65923
-4.62423
-4.58971
-4.55567
-4.52208
-4.48895
-4.45626
-4.42401
-4.3922
-4.36081
-4.32983
-4.29927
-4.2691
-4.23933
-4.20996
-4.18096
-4.15234
-4.12408
-4.09619
-4.06866
-4.04147
-4.01462
-3.98812
-3.96194
-3.93608
-3.91054
-3.88532
-3.8604
-3.83577
-3.81145
-3.7874
-3.76364
-3.74015
-3.71694
-3.69398
-3.67128
-3.64883
-3.62663
-3.60467
-3.58294
-3.56143
-3.54015
-3.51908
-3.49822
-3.47756
-3.4571
-3.43683
-3.41674
-3.39683
-3.37708
-3.35751
-3.33808
-3.31881
-3.29968
-3.28068
-3.26181
-3.24306
-3.22441
-3.20587
-3.18742
-3.16905
-3.15076
-3.13253
-3.11436
-3.09623
-3.07813
-3.06006
-3.042
-3.02394
-3.00587
-2.98777
-2.96964
-2.95147
-2.93323
-2.91493
-2.89654
-2.87806
-2.85948
-2.84078
-2.82196
-2.803
-2.78389
-2.76463
-2.74521
-2.72562
-2.70586
-2.68593
-2.66581
-2.64552
-2.62505
-2.60441
-2.5836
-2.56262
-2.5415
-2.52023
-2.49884
-2.47733
-2.45573
-2.43405
-2.41232
-2.39054
-2.36876
-2.34698
-2.32524
-2.30355
-2.28195
-2.26045
-2.23909
-2.21788
-2.19684
-2.17601
-2.15539
-2.13501
-2.11489
-2.09503
-2.07546
-2.05619
-2.03723
-2.01858
-2.00026
-1.98226
-1.96459
-1.94726
-1.93026
-1.91359
-1.89724
-1.88121
-1.8655
-1.85009
-1.83499
-1.82017
-1.80562
-1.79134
-1.77732
-1.76353
-1.74998
-1.73663
-1.72349
-1.71053
-1.69774
-1.6851
-1.67261
-1.66025
-1.648
-1.63586
-1.6238
-1.61182
-1.59991
-1.58805
-1.57623
-1.56444
-1.55268
-1.54093
-1.52919
-1.51745
-1.5057
-1.49393
-1.48215
-1.47035
-1.45852
-1.44666
-1.43477
-1.42285
-1.41089
-1.3989
-1.38687
-1.37481
-1.36271
-1.35058
-1.33842
-1.32623
-1.31401
-1.30176
-1.28949
-1.2772
-1.26489
-1.25257
-1.24023
-1.22788
-1.21553
-1.20317
-1.1908
-1.17844
-1.16608
-1.15372
-1.14137
-1.12903
-1.11671
-1.10439
-1.09209
-1.07981
-1.06755
-1.05531
-1.04309
-1.03089
-1.01872
-1.00657
-0.994449
-0.982356
-0.97029
-0.958254
-0.946247
-0.934271
-0.922325
-0.910411
-0.898529
-0.886679
-0.874861
-0.863076
-0.851325
-0.839606
-0.827921
-0.816269
-0.804651
-0.793067
-0.781517
-0.77
-0.758516
-0.747067
-0.735651
-0.724268
-0.712919
-0.701603
-0.69032
-0.67907
-0.667853
-0.656668
-0.645516
-0.634396
-0.623308
-0.612252
-0.601227
-0.590233
-0.57927
-0.568337
-0.557435
-0.546564
-0.535721
-0.524908
-0.514125
-0.50337
-0.492643
-0.481945
-0.471274
-0.46063
-0.450014
-0.439424
-0.42886
-0.418322
-0.40781
-0.397323
-0.38686
-0.376422
-0.366008
-0.355617
-0.345249
-0.334904
-0.324581
-0.31428
-0.304001
-0.293743
-0.283505
-0.273288
-0.263091
-0.252913
-0.242755
-0.232615
-0.222494
-0.212391
-0.202306
-0.192238
-0.182187
-0.172154
-0.162137
-0.152137
-0.142154
-0.132187
-0.122237
-0.112304
-0.102388
-0.0924886
-0.0826071
-0.0727436
-0.062899
-0.0530726
-0.04327
-0.0334704
-0.0237609
-0.0137725
-0.00548536
-20.5613
-20.365
-19.8753
-19.2877
-18.7103
-18.1416
-17.5875
-17.0631
-16.5721
-16.1122
-15.6816
-15.2785
-14.9006
-14.5456
-14.2113
-13.896
-13.5977
-13.315
-13.0465
-12.791
-12.5473
-12.3146
-12.092
-11.8786
-11.6738
-11.4771
-11.2877
-11.1053
-10.9294
-10.7595
-10.5953
-10.4365
-10.2827
-10.1337
-9.98913
-9.84884
-9.71259
-9.58016
-9.45137
-9.32603
-9.204
-9.08511
-8.96923
-8.85622
-8.74595
-8.63832
-8.53322
-8.43054
-8.33019
-8.23207
-8.13612
-8.04223
-7.95035
-7.86039
-7.7723
-7.686
-7.60144
-7.51856
-7.43731
-7.35764
-7.27948
-7.20281
-7.12757
-7.05373
-6.98123
-6.91005
-6.84014
-6.77148
-6.70402
-6.63774
-6.57259
-6.50857
-6.44562
-6.38373
-6.32288
-6.26302
-6.20415
-6.14624
-6.08926
-6.03319
-5.97801
-5.92371
-5.87025
-5.81763
-5.76583
-5.71482
-5.66459
-5.61513
-5.56641
-5.51843
-5.47116
-5.4246
-5.37873
-5.33353
-5.289
-5.24512
-5.20188
-5.15926
-5.11725
-5.07585
-5.03504
-4.99481
-4.95515
-4.91605
-4.8775
-4.8395
-4.80202
-4.76506
-4.72861
-4.69267
-4.65722
-4.62225
-4.58777
-4.55375
-4.52019
-4.48709
-4.45443
-4.42222
-4.39043
-4.35906
-4.32811
-4.29757
-4.26744
-4.23769
-4.20834
-4.17937
-4.15077
-4.12254
-4.09467
-4.06715
-4.03999
-4.01316
-3.98668
-3.96052
-3.93468
-3.90917
-3.88396
-3.85906
-3.83445
-3.81014
-3.78612
-3.76237
-3.7389
-3.7157
-3.69276
-3.67008
-3.64764
-3.62545
-3.6035
-3.58179
-3.56029
-3.53902
-3.51796
-3.49711
-3.47647
-3.45601
-3.43575
-3.41567
-3.39576
-3.37603
-3.35645
-3.33703
-3.31776
-3.29863
-3.27964
-3.26077
-3.24202
-3.22337
-3.20483
-3.18638
-3.16801
-3.14972
-3.13149
-3.11331
-3.09518
-3.07709
-3.05901
-3.04095
-3.02289
-3.00483
-2.98674
-2.96862
-2.95045
-2.93223
-2.91394
-2.89557
-2.87712
-2.85856
-2.83989
-2.8211
-2.80218
-2.78311
-2.7639
-2.74453
-2.725
-2.70531
-2.68544
-2.6654
-2.64518
-2.62479
-2.60423
-2.58351
-2.56263
-2.54159
-2.52042
-2.49912
-2.47771
-2.45621
-2.43462
-2.41298
-2.3913
-2.36961
-2.34793
-2.32627
-2.30467
-2.28315
-2.26174
-2.24045
-2.21931
-2.19834
-2.17757
-2.15702
-2.1367
-2.11662
-2.09682
-2.0773
-2.05807
-2.03914
-2.02053
-2.00223
-1.98426
-1.96661
-1.9493
-1.93231
-1.91565
-1.89931
-1.88329
-1.86758
-1.85217
-1.83706
-1.82223
-1.80768
-1.79339
-1.77935
-1.76554
-1.75197
-1.7386
-1.72543
-1.71244
-1.69963
-1.68696
-1.67444
-1.66205
-1.64976
-1.63758
-1.62549
-1.61347
-1.60152
-1.58962
-1.57776
-1.56593
-1.55413
-1.54234
-1.53056
-1.51877
-1.50698
-1.49518
-1.48335
-1.47151
-1.45964
-1.44774
-1.43581
-1.42385
-1.41185
-1.39982
-1.38776
-1.37566
-1.36353
-1.35136
-1.33917
-1.32694
-1.31469
-1.30242
-1.29012
-1.2778
-1.26547
-1.25311
-1.24075
-1.22838
-1.216
-1.20362
-1.19123
-1.17885
-1.16647
-1.1541
-1.14173
-1.12938
-1.11703
-1.10471
-1.09239
-1.0801
-1.06782
-1.05557
-1.04334
-1.03113
-1.01894
-1.00679
-0.994656
-0.982553
-0.970479
-0.958434
-0.946419
-0.934435
-0.922482
-0.910561
-0.898672
-0.886816
-0.874992
-0.863201
-0.851444
-0.83972
-0.82803
-0.816374
-0.804751
-0.793163
-0.781608
-0.770087
-0.7586
-0.747147
-0.735728
-0.724342
-0.71299
-0.701671
-0.690385
-0.679133
-0.667913
-0.656727
-0.645572
-0.63445
-0.623361
-0.612303
-0.601276
-0.590281
-0.579317
-0.568383
-0.557481
-0.546608
-0.535765
-0.524951
-0.514167
-0.503412
-0.492685
-0.481986
-0.471315
-0.460672
-0.450056
-0.439466
-0.428903
-0.418365
-0.407853
-0.397367
-0.386905
-0.376467
-0.366054
-0.355664
-0.345297
-0.334953
-0.324631
-0.314332
-0.304053
-0.293796
-0.28356
-0.273344
-0.263148
-0.252972
-0.242815
-0.232676
-0.222556
-0.212455
-0.202371
-0.192304
-0.182255
-0.172222
-0.162206
-0.152207
-0.142224
-0.132257
-0.122307
-0.112373
-0.102455
-0.0925538
-0.082669
-0.0728009
-0.0629497
-0.0531143
-0.0432993
-0.0334838
-0.0237492
-0.0137428
-0.00535433
-19.4717
-19.3557
-19.0342
-18.6
-18.139
-17.6693
-17.1989
-16.7407
-16.3018
-15.8838
-15.487
-15.1112
-14.7556
-14.4189
-14.0999
-13.7973
-13.5097
-13.2361
-12.9754
-12.7266
-12.4888
-12.2611
-12.0429
-11.8334
-11.6321
-11.4384
-11.2518
-11.0719
-10.8981
-10.7303
-10.5679
-10.4107
-10.2584
-10.1108
-9.96748
-9.82834
-9.69315
-9.5617
-9.43381
-9.30932
-9.18807
-9.0699
-8.95469
-8.84231
-8.73264
-8.62556
-8.52097
-8.41877
-8.31888
-8.22119
-8.12564
-8.03213
-7.94061
-7.85099
-7.76322
-7.67723
-7.59296
-7.51035
-7.42936
-7.34993
-7.27202
-7.19557
-7.12054
-7.0469
-6.9746
-6.90361
-6.83388
-6.76538
-6.69809
-6.63196
-6.56697
-6.50308
-6.44028
-6.37852
-6.31779
-6.25806
-6.19931
-6.14151
-6.08463
-6.02867
-5.9736
-5.91939
-5.86603
-5.8135
-5.76178
-5.71086
-5.66071
-5.61133
-5.56269
-5.51478
-5.46759
-5.42109
-5.37529
-5.33016
-5.28569
-5.24187
-5.19869
-5.15613
-5.11418
-5.07283
-5.03208
-4.9919
-4.95229
-4.91324
-4.87474
-4.83678
-4.79934
-4.76243
-4.72603
-4.69013
-4.65472
-4.6198
-4.58535
-4.55137
-4.51785
-4.48479
-4.45217
-4.41998
-4.38823
-4.3569
-4.32598
-4.29548
-4.26537
-4.23566
-4.20634
-4.1774
-4.14883
-4.12063
-4.09279
-4.0653
-4.03817
-4.01137
-3.98491
-3.95878
-3.93298
-3.90749
-3.88231
-3.85743
-3.83285
-3.80857
-3.78457
-3.76085
-3.7374
-3.71423
-3.69131
-3.66865
-3.64624
-3.62407
-3.60215
-3.58045
-3.55898
-3.53773
-3.51669
-3.49586
-3.47523
-3.4548
-3.43455
-3.41449
-3.3946
-3.37488
-3.35533
-3.33592
-3.31667
-3.29755
-3.27857
-3.25971
-3.24097
-3.22234
-3.20381
-3.18538
-3.16702
-3.14874
-3.13052
-3.11236
-3.09424
-3.07616
-3.0581
-3.04005
-3.02201
-3.00396
-2.98589
-2.96779
-2.94965
-2.93145
-2.91319
-2.89486
-2.87644
-2.85792
-2.83929
-2.82054
-2.80167
-2.78266
-2.76351
-2.74421
-2.72474
-2.70512
-2.68532
-2.66536
-2.64523
-2.62493
-2.60446
-2.58383
-2.56304
-2.54211
-2.52104
-2.49984
-2.47853
-2.45713
-2.43564
-2.4141
-2.39252
-2.37092
-2.34933
-2.32776
-2.30625
-2.28481
-2.26348
-2.24226
-2.2212
-2.2003
-2.17959
-2.15909
-2.13882
-2.1188
-2.09904
-2.07955
-2.06035
-2.04146
-2.02287
-2.00459
-1.98664
-1.96901
-1.9517
-1.93472
-1.91806
-1.90171
-1.88568
-1.86996
-1.85454
-1.83941
-1.82457
-1.80999
-1.79568
-1.78161
-1.76778
-1.75417
-1.74077
-1.72756
-1.71453
-1.70168
-1.68897
-1.67641
-1.66397
-1.65164
-1.63941
-1.62727
-1.6152
-1.6032
-1.59125
-1.57934
-1.56746
-1.55561
-1.54377
-1.53193
-1.5201
-1.50826
-1.49641
-1.48454
-1.47264
-1.46073
-1.44878
-1.43681
-1.4248
-1.41277
-1.40069
-1.38859
-1.37645
-1.36428
-1.35208
-1.33985
-1.3276
-1.31532
-1.30301
-1.29068
-1.27834
-1.26597
-1.2536
-1.24121
-1.22882
-1.21642
-1.20401
-1.19161
-1.17921
-1.16681
-1.15442
-1.14204
-1.12967
-1.11731
-1.10497
-1.09264
-1.08033
-1.06805
-1.05578
-1.04354
-1.03132
-1.01913
-1.00696
-0.994818
-0.982707
-0.970624
-0.958572
-0.946549
-0.934558
-0.922598
-0.910671
-0.898776
-0.886913
-0.875084
-0.863288
-0.851525
-0.839797
-0.828102
-0.816441
-0.804814
-0.793221
-0.781663
-0.770138
-0.758648
-0.747192
-0.735769
-0.724381
-0.713026
-0.701704
-0.690417
-0.679162
-0.66794
-0.656752
-0.645596
-0.634472
-0.623381
-0.612322
-0.601294
-0.590298
-0.579333
-0.568399
-0.557495
-0.546622
-0.535779
-0.524965
-0.51418
-0.503425
-0.492698
-0.482
-0.471329
-0.460686
-0.45007
-0.439481
-0.428919
-0.418382
-0.407871
-0.397386
-0.386925
-0.376488
-0.366076
-0.355687
-0.345322
-0.334979
-0.324659
-0.314361
-0.304084
-0.293829
-0.283594
-0.27338
-0.263186
-0.253011
-0.242855
-0.232719
-0.2226
-0.2125
-0.202418
-0.192353
-0.182305
-0.172273
-0.162259
-0.15226
-0.142278
-0.132311
-0.12236
-0.112425
-0.102506
-0.0926024
-0.0827141
-0.072841
-0.0629832
-0.0531389
-0.0433119
-0.0334815
-0.0237245
-0.0137035
-0.00522717
-18.5815
-18.5045
-18.2794
-17.9531
-17.5857
-17.1983
-16.8001
-16.4022
-16.0128
-15.6357
-15.2728
-14.9251
-14.5928
-14.2757
-13.973
-13.6843
-13.4085
-13.1451
-12.8931
-12.6518
-12.4206
-12.1987
-11.9855
-11.7805
-11.5832
-11.3931
-11.2096
-11.0325
-10.8614
-10.6958
-10.5356
-10.3803
-10.2298
-10.0837
-9.94189
-9.8041
-9.67015
-9.53985
-9.41303
-9.28952
-9.16918
-9.05187
-8.93745
-8.82581
-8.71683
-8.6104
-8.50642
-8.4048
-8.30544
-8.20826
-8.11318
-8.02013
-7.92903
-7.83981
-7.75242
-7.66679
-7.58286
-7.50058
-7.41989
-7.34076
-7.26312
-7.18694
-7.11217
-7.03877
-6.9667
-6.89592
-6.82641
-6.75811
-6.69101
-6.62507
-6.56025
-6.49654
-6.43389
-6.3723
-6.31172
-6.25213
-6.19352
-6.13585
-6.07911
-6.02327
-5.96832
-5.91422
-5.86098
-5.80855
-5.75694
-5.70612
-5.65607
-5.60678
-5.55823
-5.51041
-5.4633
-5.4169
-5.37117
-5.32612
-5.28173
-5.23798
-5.19487
-5.15238
-5.1105
-5.06922
-5.02853
-4.98841
-4.94886
-4.90987
-4.87143
-4.83352
-4.79615
-4.75929
-4.72293
-4.68708
-4.65173
-4.61685
-4.58245
-4.54852
-4.51505
-4.48203
-4.44945
-4.41731
-4.3856
-4.35431
-4.32344
-4.29297
-4.26291
-4.23324
-4.20395
-4.17505
-4.14652
-4.11836
-4.09055
-4.06311
-4.03601
-4.00925
-3.98282
-3.95673
-3.93095
-3.9055
-3.88035
-3.85551
-3.83097
-3.80671
-3.78275
-3.75906
-3.73565
-3.7125
-3.68962
-3.66699
-3.64461
-3.62248
-3.60058
-3.57892
-3.55748
-3.53626
-3.51525
-3.49445
-3.47385
-3.45344
-3.43323
-3.41319
-3.39333
-3.37364
-3.35411
-3.33473
-3.3155
-3.29641
-3.27746
-3.25862
-3.23991
-3.2213
-3.2028
-3.18439
-3.16606
-3.1478
-3.12961
-3.11147
-3.09338
-3.07532
-3.05729
-3.03928
-3.02126
-3.00324
-2.98521
-2.96714
-2.94904
-2.93088
-2.91266
-2.89437
-2.87599
-2.85752
-2.83895
-2.82026
-2.80145
-2.78251
-2.76342
-2.74419
-2.7248
-2.70526
-2.68555
-2.66568
-2.64563
-2.62543
-2.60506
-2.58453
-2.56384
-2.54301
-2.52204
-2.50095
-2.47975
-2.45845
-2.43707
-2.41563
-2.39415
-2.37265
-2.35115
-2.32968
-2.30825
-2.2869
-2.26564
-2.2445
-2.2235
-2.20267
-2.18202
-2.16157
-2.14135
-2.12137
-2.10165
-2.0822
-2.06303
-2.04416
-2.02558
-2.00732
-1.98938
-1.97175
-1.95444
-1.93745
-1.92078
-1.90442
-1.88838
-1.87264
-1.85719
-1.84203
-1.82715
-1.81254
-1.79819
-1.78408
-1.77021
-1.75655
-1.74311
-1.72985
-1.71677
-1.70386
-1.69111
-1.67848
-1.66599
-1.6536
-1.64132
-1.62912
-1.61699
-1.60493
-1.59292
-1.58095
-1.56901
-1.5571
-1.5452
-1.53331
-1.52142
-1.50952
-1.49761
-1.48569
-1.47375
-1.46178
-1.44978
-1.43776
-1.42571
-1.41363
-1.40151
-1.38937
-1.37719
-1.36498
-1.35274
-1.34048
-1.32819
-1.31587
-1.30354
-1.29118
-1.27881
-1.26642
-1.25402
-1.24161
-1.22919
-1.21677
-1.20435
-1.19193
-1.17951
-1.16709
-1.15468
-1.14229
-1.1299
-1.11753
-1.10518
-1.09284
-1.08052
-1.06822
-1.05594
-1.04369
-1.03146
-1.01926
-1.00708
-0.994936
-0.982817
-0.970727
-0.958667
-0.946638
-0.93464
-0.922674
-0.91074
-0.898839
-0.886971
-0.875137
-0.863336
-0.851568
-0.839835
-0.828136
-0.816471
-0.80484
-0.793244
-0.781682
-0.770154
-0.75866
-0.747201
-0.735776
-0.724385
-0.713027
-0.701704
-0.690414
-0.679157
-0.667934
-0.656744
-0.645586
-0.634461
-0.623369
-0.612309
-0.60128
-0.590283
-0.579318
-0.568383
-0.557479
-0.546606
-0.535762
-0.524949
-0.514165
-0.50341
-0.492683
-0.481985
-0.471315
-0.460673
-0.450058
-0.43947
-0.428909
-0.418373
-0.407864
-0.397379
-0.38692
-0.376485
-0.366074
-0.355687
-0.345324
-0.334983
-0.324664
-0.314368
-0.304093
-0.29384
-0.283607
-0.273395
-0.263203
-0.25303
-0.242877
-0.232742
-0.222626
-0.212528
-0.202447
-0.192384
-0.182337
-0.172308
-0.162294
-0.152297
-0.142315
-0.132349
-0.122398
-0.112462
-0.102542
-0.0926356
-0.0827439
-0.0728661
-0.0630019
-0.0531493
-0.0433115
-0.0334679
-0.0236917
-0.0136598
-0.00510813
-17.8262
-17.7705
-17.605
-17.3546
-17.0597
-16.7387
-16.4011
-16.0563
-15.7124
-15.3741
-15.0441
-14.7242
-14.4155
-14.1184
-13.8329
-13.5588
-13.2957
-13.0431
-12.8005
-12.5675
-12.3435
-12.1279
-11.9204
-11.7204
-11.5275
-11.3413
-11.1615
-10.9876
-10.8193
-10.6564
-10.4985
-10.3454
-10.1969
-10.0526
-9.91248
-9.77623
-9.6437
-9.51471
-9.3891
-9.26672
-9.14742
-9.03108
-8.91757
-8.80678
-8.69859
-8.59291
-8.48962
-8.38865
-8.28991
-8.19331
-8.09878
-8.00624
-7.91563
-7.82687
-7.73992
-7.6547
-7.57116
-7.48926
-7.40893
-7.33013
-7.25281
-7.17693
-7.10245
-7.02933
-6.95753
-6.88701
-6.81774
-6.74968
-6.6828
-6.61707
-6.55246
-6.48894
-6.42648
-6.36507
-6.30466
-6.24525
-6.18679
-6.12928
-6.07269
-6.01699
-5.96218
-5.90822
-5.8551
-5.8028
-5.75131
-5.70061
-5.65067
-5.60149
-5.55305
-5.50533
-5.45832
-5.41201
-5.36638
-5.32142
-5.27711
-5.23345
-5.19042
-5.14801
-5.10621
-5.06501
-5.02439
-4.98435
-4.94487
-4.90595
-4.86757
-4.82973
-4.79242
-4.75562
-4.71933
-4.68354
-4.64824
-4.61342
-4.57908
-4.5452
-4.51178
-4.47882
-4.44629
-4.4142
-4.38254
-4.3513
-4.32048
-4.29006
-4.26004
-4.23042
-4.20118
-4.17232
-4.14383
-4.11571
-4.08796
-4.06055
-4.03349
-4.00678
-3.98039
-3.95434
-3.92861
-3.90319
-3.87809
-3.85329
-3.82878
-3.80457
-3.78065
-3.757
-3.73363
-3.71052
-3.68768
-3.66509
-3.64275
-3.62065
-3.5988
-3.57717
-3.55577
-3.53459
-3.51362
-3.49285
-3.47229
-3.45192
-3.43175
-3.41175
-3.39192
-3.37227
-3.35277
-3.33343
-3.31424
-3.29519
-3.27627
-3.25748
-3.2388
-3.22023
-3.20176
-3.18338
-3.16509
-3.14687
-3.12872
-3.11062
-3.09257
-3.07455
-3.05656
-3.03859
-3.02062
-3.00265
-2.98465
-2.96664
-2.94858
-2.93047
-2.91231
-2.89407
-2.87576
-2.85735
-2.83884
-2.82022
-2.80148
-2.78261
-2.7636
-2.74445
-2.72515
-2.70569
-2.68607
-2.66629
-2.64635
-2.62624
-2.60598
-2.58555
-2.56498
-2.54425
-2.5234
-2.50241
-2.48132
-2.46013
-2.43886
-2.41752
-2.39614
-2.37474
-2.35334
-2.33196
-2.31063
-2.28936
-2.26818
-2.24711
-2.22618
-2.20541
-2.18482
-2.16443
-2.14425
-2.12431
-2.10462
-2.0852
-2.06605
-2.04719
-2.02863
-2.01038
-1.99243
-1.9748
-1.95748
-1.94047
-1.92378
-1.9074
-1.89133
-1.87556
-1.86008
-1.84488
-1.82996
-1.8153
-1.8009
-1.78674
-1.77281
-1.7591
-1.74559
-1.73228
-1.71914
-1.70617
-1.69334
-1.68065
-1.66809
-1.65564
-1.64328
-1.63102
-1.61882
-1.60669
-1.59461
-1.58258
-1.57057
-1.55859
-1.54663
-1.53467
-1.52272
-1.51076
-1.49879
-1.48681
-1.47481
-1.46278
-1.45074
-1.43866
-1.42656
-1.41443
-1.40227
-1.39008
-1.37786
-1.36562
-1.35334
-1.34104
-1.32872
-1.31637
-1.304
-1.29162
-1.27922
-1.26681
-1.25438
-1.24195
-1.22951
-1.21707
-1.20463
-1.19218
-1.17975
-1.16732
-1.1549
-1.14248
-1.13009
-1.1177
-1.10533
-1.09299
-1.08066
-1.06835
-1.05606
-1.0438
-1.03156
-1.01935
-1.00717
-0.99501
-0.982884
-0.970787
-0.95872
-0.946684
-0.934681
-0.922709
-0.910769
-0.898863
-0.88699
-0.875151
-0.863345
-0.851573
-0.839836
-0.828133
-0.816464
-0.804829
-0.79323
-0.781664
-0.770133
-0.758637
-0.747175
-0.735747
-0.724354
-0.712994
-0.701669
-0.690377
-0.679119
-0.667894
-0.656702
-0.645544
-0.634418
-0.623325
-0.612264
-0.601234
-0.590237
-0.579271
-0.568337
-0.557433
-0.546559
-0.535716
-0.524903
-0.51412
-0.503365
-0.49264
-0.481943
-0.471274
-0.460633
-0.450019
-0.439432
-0.428872
-0.418338
-0.40783
-0.397348
-0.38689
-0.376457
-0.366049
-0.355664
-0.345302
-0.334963
-0.324647
-0.314353
-0.304081
-0.29383
-0.2836
-0.27339
-0.2632
-0.25303
-0.242879
-0.232747
-0.222633
-0.212537
-0.202459