/*--------------------------------*- C++ -*----------------------------------*\
| =========                 |                                                 |
| \\      /  F ield         | OpenFOAM: The Open Source CFD Toolbox           |
|  \\    /   O peration     | Version:  2506                                  |
|   \\  /    A nd           | Website:  www.openfoam.com                      |
|    \\/     M anipulation  |                                                 |
\*---------------------------------------------------------------------------*/
FoamFile
{
    version     2.0;
    format      ascii;
    arch        "LSB;label=32;scalar=64";
    class       surfaceScalarField;
    location    "200";
    object      phi;
}
// * * * * * * * * * * * * * * * * * * * * * * * * * * * * * * * * * * * * * //

dimensions      [0 3 -1 0 0 0 0];

oriented        oriented;

internalField   nonuniform List<scalar> 
266147
(
0.00237347
0.000117012
0.00231511
5.83686e-05
0.00227866
3.64489e-05
0.00225493
2.37283e-05
0.00223812
1.68087e-05
0.00222488
1.32358e-05
0.00221386
1.10204e-05
0.00220442
9.43797e-06
0.00219615
8.26879e-06
0.00218878
7.37312e-06
0.00218212
6.65726e-06
0.00217605
6.06949e-06
0.00217047
5.57823e-06
0.00216531
5.1611e-06
0.00216051
4.80202e-06
0.00215602
4.48942e-06
0.0021518
4.21467e-06
0.00214783
3.97116e-06
0.00214408
3.75372e-06
0.00214052
3.5583e-06
0.00213714
3.38162e-06
0.00213391
3.22105e-06
0.00213084
3.07442e-06
0.0021279
2.93994e-06
0.00212508
2.81613e-06
0.00212238
2.70171e-06
0.00211978
2.59563e-06
0.00211729
2.49697e-06
0.00211488
2.40495e-06
0.00211256
2.31889e-06
0.00211032
2.2382e-06
0.00210816
2.16237e-06
0.00210607
2.09095e-06
0.00210404
2.02353e-06
0.00210208
1.95977e-06
0.00210018
1.89935e-06
0.00209834
1.842e-06
0.00209655
1.78746e-06
0.00209482
1.73553e-06
0.00209313
1.686e-06
0.00209149
1.63869e-06
0.0020899
1.59344e-06
0.00208835
1.55012e-06
0.00208684
1.5086e-06
0.00208537
1.46875e-06
0.00208394
1.43047e-06
0.00208254
1.39366e-06
0.00208119
1.35824e-06
0.00207986
1.32412e-06
0.00207857
1.29123e-06
0.00207731
1.25949e-06
0.00207608
1.22885e-06
0.00207488
1.19924e-06
0.00207371
1.17061e-06
0.00207257
1.1429e-06
0.00207145
1.11606e-06
0.00207036
1.09004e-06
0.00206929
1.06481e-06
0.00206825
1.04031e-06
0.00206724
1.01651e-06
0.00206624
9.93375e-07
0.00206527
9.70869e-07
0.00206432
9.4896e-07
0.00206339
9.27619e-07
0.00206249
9.0682e-07
0.0020616
8.86537e-07
0.00206073
8.66747e-07
0.00205988
8.4743e-07
0.00205906
8.28565e-07
0.00205825
8.10135e-07
0.00205745
7.92123e-07
0.00205668
7.74512e-07
0.00205592
7.57288e-07
0.00205518
7.40437e-07
0.00205446
7.23944e-07
0.00205375
7.07797e-07
0.00205306
6.91983e-07
0.00205238
6.76489e-07
0.00205172
6.61302e-07
0.00205107
6.46412e-07
0.00205044
6.31804e-07
0.00204982
6.17467e-07
0.00204922
6.0339e-07
0.00204863
5.89562e-07
0.00204805
5.7597e-07
0.00204749
5.62605e-07
0.00204694
5.49457e-07
0.0020464
5.36515e-07
0.00204588
5.2377e-07
0.00204537
5.11215e-07
0.00204487
4.98839e-07
0.00204438
4.86636e-07
0.00204391
4.74598e-07
0.00204344
4.62719e-07
0.00204299
4.50991e-07
0.00204255
4.39409e-07
0.00204212
4.27966e-07
0.00204171
4.16656e-07
0.0020413
4.05473e-07
0.00204091
3.94411e-07
0.00204052
3.83462e-07
0.00204015
3.72623e-07
0.00203979
3.61884e-07
0.00203944
3.51239e-07
0.0020391
3.40681e-07
0.00203877
3.30203e-07
0.00203845
3.19795e-07
0.00203814
3.0945e-07
0.00203784
2.99159e-07
0.00203755
2.88915e-07
0.00203727
2.78706e-07
0.002037
2.68524e-07
0.00203674
2.58359e-07
0.0020365
2.48202e-07
0.00203626
2.38041e-07
0.00203603
2.27866e-07
0.00203581
2.17666e-07
0.0020356
2.0743e-07
0.00203541
1.97144e-07
0.00203522
1.86797e-07
0.00203504
1.76374e-07
0.00203488
1.65863e-07
0.00203472
1.55246e-07
0.00203458
1.44511e-07
0.00203444
1.33638e-07
0.00203432
1.22612e-07
0.00203421
1.11414e-07
0.00203411
1.00026e-07
0.00203402
8.84261e-08
0.00203394
7.65951e-08
0.00203388
6.45102e-08
0.00203383
5.21497e-08
0.00203379
3.94892e-08
0.00203376
2.65054e-08
0.00203375
1.3172e-08
0.00203375
-5.358e-10
0.00203376
-1.46459e-08
0.00203379
-2.9185e-08
0.00203384
-4.41825e-08
0.00203389
-5.96667e-08
0.00203397
-7.56691e-08
0.00203406
-9.22197e-08
0.00203417
-1.09352e-07
0.0020343
-1.27098e-07
0.00203444
-1.45493e-07
0.00203461
-1.64572e-07
0.00203479
-1.84372e-07
0.002035
-2.04932e-07
0.00203522
-2.26292e-07
0.00203547
-2.48492e-07
0.00203574
-2.71577e-07
0.00203604
-2.9559e-07
0.00203636
-3.2058e-07
0.00203671
-3.46596e-07
0.00203708
-3.73688e-07
0.00203748
-4.0191e-07
0.00203791
-4.31318e-07
0.00203837
-4.61968e-07
0.00203887
-4.93922e-07
0.0020394
-5.27241e-07
0.00203996
-5.61988e-07
0.00204056
-5.98228e-07
0.00204119
-6.36029e-07
0.00204187
-6.75457e-07
0.00204258
-7.16579e-07
0.00204334
-7.59466e-07
0.00204415
-8.04182e-07
0.002045
-8.50794e-07
0.0020459
-8.99365e-07
0.00204685
-9.49956e-07
0.00204785
-1.00262e-06
0.00204891
-1.05742e-06
0.00205002
-1.11438e-06
0.00205119
-1.17355e-06
0.00205243
-1.23496e-06
0.00205373
-1.29863e-06
0.00205509
-1.36456e-06
0.00205652
-1.43274e-06
0.00205803
-1.50316e-06
0.0020596
-1.57578e-06
0.00206125
-1.65054e-06
0.00206298
-1.72739e-06
0.00206479
-1.80621e-06
0.00206668
-1.88691e-06
0.00206864
-1.96935e-06
0.0020707
-2.05338e-06
0.00207284
-2.13883e-06
0.00207506
-2.22551e-06
0.00207738
-2.3132e-06
0.00207978
-2.40167e-06
0.00208227
-2.49065e-06
0.00208485
-2.5799e-06
0.00208752
-2.66911e-06
0.00209028
-2.758e-06
0.00209312
-2.84625e-06
0.00209606
-2.93356e-06
0.00209908
-3.01959e-06
0.00210218
-3.10403e-06
0.00210537
-3.18655e-06
0.00210864
-3.26685e-06
0.00211198
-3.34461e-06
0.0021154
-3.41954e-06
0.00211889
-3.49135e-06
0.00212245
-3.55979e-06
0.00212608
-3.62459e-06
0.00212976
-3.68554e-06
0.00213351
-3.74243e-06
0.0021373
-3.79508e-06
0.00214115
-3.84334e-06
0.00214503
-3.88707e-06
0.00214896
-3.92619e-06
0.00215292
-3.9606e-06
0.00215691
-3.99025e-06
0.00216093
-4.01513e-06
0.00216496
-4.03524e-06
0.00216901
-4.05058e-06
0.00217308
-4.06121e-06
0.00217714
-4.06718e-06
0.00218121
-4.06859e-06
0.00218528
-4.06552e-06
0.00218934
-4.0581e-06
0.00219338
-4.04645e-06
0.00219742
-4.03071e-06
0.00220143
-4.01104e-06
0.00220541
-3.9876e-06
0.00220938
-3.96055e-06
0.00221331
-3.93006e-06
0.0022172
-3.89632e-06
0.00222106
-3.85951e-06
0.00222488
-3.8198e-06
0.00222866
-3.77739e-06
0.00223239
-3.73246e-06
0.00223608
-3.68519e-06
0.00223971
-3.63576e-06
0.0022433
-3.58436e-06
0.00224683
-3.53115e-06
0.00225031
-3.47633e-06
0.00225373
-3.42004e-06
0.00225709
-3.36246e-06
0.00226039
-3.30375e-06
0.00226364
-3.24407e-06
0.00226682
-3.18355e-06
0.00226994
-3.12236e-06
0.002273
-3.06062e-06
0.002276
-2.99847e-06
0.00227894
-2.93604e-06
0.00228181
-2.87345e-06
0.00228462
-2.81082e-06
0.00228737
-2.74825e-06
0.00229005
-2.68585e-06
0.00229268
-2.62372e-06
0.00229524
-2.56196e-06
0.00229774
-2.50064e-06
0.00230018
-2.43985e-06
0.00230256
-2.37966e-06
0.00230488
-2.32015e-06
0.00230714
-2.26139e-06
0.00230934
-2.20342e-06
0.00231149
-2.14631e-06
0.00231358
-2.0901e-06
0.00231561
-2.03484e-06
0.00231759
-1.98056e-06
0.00231952
-1.92731e-06
0.00232139
-1.87512e-06
0.00232322
-1.824e-06
0.00232499
-1.77399e-06
0.00232672
-1.72509e-06
0.00232839
-1.67733e-06
0.00233002
-1.63072e-06
0.00233161
-1.58525e-06
0.00233315
-1.54094e-06
0.00233465
-1.49779e-06
0.0023361
-1.45579e-06
0.00233752
-1.41493e-06
0.00233889
-1.37522e-06
0.00234023
-1.33664e-06
0.00234153
-1.29917e-06
0.00234279
-1.2628e-06
0.00234402
-1.22752e-06
0.00234521
-1.19331e-06
0.00234637
-1.16014e-06
0.0023475
-1.128e-06
0.0023486
-1.09687e-06
0.00234966
-1.06671e-06
0.0023507
-1.03751e-06
0.00235171
-1.00925e-06
0.00235269
-9.81885e-07
0.00235365
-9.55406e-07
0.00235458
-9.2978e-07
0.00235548
-9.04984e-07
0.00235636
-8.80988e-07
0.00235722
-8.5777e-07
0.00235805
-8.353e-07
0.00235887
-8.13556e-07
0.00235966
-7.9251e-07
0.00236043
-7.7214e-07
0.00236118
-7.52419e-07
0.00236192
-7.33325e-07
0.00236263
-7.14832e-07
0.00236333
-6.96921e-07
0.00236401
-6.79566e-07
0.00236467
-6.62749e-07
0.00236532
-6.46447e-07
0.00236595
-6.30642e-07
0.00236656
-6.15312e-07
0.00236716
-6.0044e-07
0.00236775
-5.86007e-07
0.00236832
-5.71998e-07
0.00236888
-5.58392e-07
0.00236943
-5.45177e-07
0.00236996
-5.32334e-07
0.00237048
-5.19852e-07
0.00237098
-5.07712e-07
0.00237148
-4.95904e-07
0.00237197
-4.84413e-07
0.00237244
-4.73227e-07
0.0023729
-4.62333e-07
0.00237335
-4.5172e-07
0.00237379
-4.41376e-07
0.00237422
-4.31292e-07
0.00237465
-4.21455e-07
0.00237506
-4.11857e-07
0.00237546
-4.02487e-07
0.00237585
-3.93337e-07
0.00237624
-3.84397e-07
0.00237661
-3.7566e-07
0.00237698
-3.67116e-07
0.00237734
-3.58758e-07
0.00237769
-3.50578e-07
0.00237803
-3.4257e-07
0.00237837
-3.34725e-07
0.00237869
-3.27038e-07
0.00237901
-3.195e-07
0.00237933
-3.12107e-07
0.00237963
-3.04851e-07
0.00237993
-2.97728e-07
0.00238022
-2.9073e-07
0.0023805
-2.83853e-07
0.00238078
-2.77091e-07
0.00238105
-2.7044e-07
0.00238131
-2.63892e-07
0.00238157
-2.57446e-07
0.00238182
-2.51094e-07
0.00238207
-2.44833e-07
0.00238231
-2.38658e-07
0.00238254
-2.32565e-07
0.00238277
-2.26549e-07
0.00238299
-2.20607e-07
0.0023832
-2.14733e-07
0.00238341
-2.08926e-07
0.00238361
-2.03179e-07
0.00238381
-1.97491e-07
0.002384
-1.91857e-07
0.00238419
-1.86274e-07
0.00238437
-1.80738e-07
0.00238454
-1.75246e-07
0.00238471
-1.69795e-07
0.00238488
-1.64382e-07
0.00238504
-1.59002e-07
0.00238519
-1.53655e-07
0.00238534
-1.48335e-07
0.00238548
-1.43042e-07
0.00238562
-1.3777e-07
0.00238575
-1.3252e-07
0.00238588
-1.27286e-07
0.002386
-1.22068e-07
0.00238612
-1.16862e-07
0.00238623
-1.11666e-07
0.00238634
-1.06477e-07
0.00238644
-1.01294e-07
0.00238653
-9.61137e-08
0.00238662
-9.09351e-08
0.00238671
-8.57546e-08
0.00238679
-8.0572e-08
0.00238687
-7.53839e-08
0.00238694
-7.01899e-08
0.002387
-6.4987e-08
0.00238706
-5.9775e-08
0.00238712
-5.45512e-08
0.00238717
-4.93156e-08
0.00238721
-4.40656e-08
0.00238725
-3.88018e-08
0.00238728
-3.35221e-08
0.00238731
-2.82275e-08
0.00238733
-2.29164e-08
0.00238735
-1.75909e-08
0.00238736
-1.22504e-08
0.00238737
-6.89819e-09
0.00238737
-1.53535e-09
0.00238737
3.83274e-09
0.00238736
9.20252e-09
0.00238734
1.45652e-08
0.00238732
1.99119e-08
0.0023873
2.52247e-08
0.00238727
3.04878e-08
0.00238723
3.56463e-08
0.00238719
4.07048e-08
0.00238715
4.53819e-08
0.0023871
5.02663e-08
5.47807e-08
0.00243699
0.00017051
0.00238645
0.000108907
0.0023455
7.73996e-05
0.00231244
5.67892e-05
0.00228646
4.27824e-05
0.00226593
3.37683e-05
0.00224926
2.76887e-05
0.0022354
2.33008e-05
0.00222362
2.00412e-05
0.00221343
1.7563e-05
0.00220447
1.56213e-05
0.00219648
1.40596e-05
0.00218927
1.27785e-05
0.00218273
1.17094e-05
0.00217672
1.08038e-05
0.00217118
1.00265e-05
0.00216605
9.35205e-06
0.00216126
8.76109e-06
0.00215677
8.23885e-06
0.00215255
7.77386e-06
0.00214858
7.35705e-06
0.00214482
6.98118e-06
0.00214125
6.64038e-06
0.00213786
6.32988e-06
0.00213463
6.04571e-06
0.00213154
5.78458e-06
0.00212859
5.54374e-06
0.00212577
5.32083e-06
0.00212306
5.11387e-06
0.00212046
4.92115e-06
0.00211795
4.74118e-06
0.00211554
4.57269e-06
0.00211322
4.41457e-06
0.00211097
4.26582e-06
0.00210881
4.12559e-06
0.00210671
3.99313e-06
0.00210469
3.86776e-06
0.00210272
3.74888e-06
0.00210082
3.63596e-06
0.00209898
3.52854e-06
0.00209719
3.42618e-06
0.00209546
3.32851e-06
0.00209377
3.23519e-06
0.00209213
3.14592e-06
0.00209054
3.06041e-06
0.00208899
2.97842e-06
0.00208748
2.89972e-06
0.00208602
2.8241e-06
0.00208459
2.75138e-06
0.0020832
2.68138e-06
0.00208184
2.61395e-06
0.00208052
2.54893e-06
0.00207923
2.48619e-06
0.00207798
2.4256e-06
0.00207675
2.36703e-06
0.00207556
2.31038e-06
0.00207439
2.25554e-06
0.00207325
2.20242e-06
0.00207214
2.15091e-06
0.00207106
2.10094e-06
0.00207
2.05241e-06
0.00206896
2.00526e-06
0.00206795
1.95941e-06
0.00206696
1.9148e-06
0.002066
1.87137e-06
0.00206505
1.82905e-06
0.00206413
1.78781e-06
0.00206323
1.74758e-06
0.00206235
1.70833e-06
0.00206149
1.67001e-06
0.00206065
1.63259e-06
0.00205983
1.59603e-06
0.00205903
1.5603e-06
0.00205824
1.52536e-06
0.00205747
1.49119e-06
0.00205672
1.45776e-06
0.00205599
1.42504e-06
0.00205527
1.393e-06
0.00205457
1.36162e-06
0.00205389
1.33087e-06
0.00205322
1.30072e-06
0.00205256
1.27116e-06
0.00205192
1.24215e-06
0.0020513
1.21367e-06
0.00205069
1.1857e-06
0.00205009
1.15822e-06
0.00204951
1.13121e-06
0.00204894
1.10464e-06
0.00204839
1.07849e-06
0.00204785
1.05275e-06
0.00204732
1.02739e-06
0.0020468
1.00241e-06
0.0020463
9.77783e-07
0.00204581
9.53495e-07
0.00204533
9.29533e-07
0.00204486
9.05883e-07
0.00204441
8.82533e-07
0.00204396
8.59469e-07
0.00204353
8.3668e-07
0.00204311
8.14152e-07
0.0020427
7.91873e-07
0.00204231
7.6983e-07
0.00204192
7.48009e-07
0.00204155
7.26397e-07
0.00204118
7.04979e-07
0.00204083
6.83739e-07
0.00204048
6.62664e-07
0.00204015
6.41737e-07
0.00203983
6.20941e-07
0.00203952
6.00259e-07
0.00203922
5.79673e-07
0.00203893
5.59166e-07
0.00203865
5.38718e-07
0.00203837
5.18311e-07
0.00203811
4.97924e-07
0.00203787
4.77537e-07
0.00203763
4.57128e-07
0.0020374
4.36675e-07
0.00203718
4.16155e-07
0.00203697
3.95544e-07
0.00203677
3.74816e-07
0.00203658
3.53944e-07
0.0020364
3.32901e-07
0.00203624
3.11656e-07
0.00203608
2.9018e-07
0.00203593
2.68439e-07
0.0020358
2.46399e-07
0.00203567
2.24025e-07
0.00203556
2.01279e-07
0.00203546
1.78121e-07
0.00203537
1.54511e-07
0.00203529
1.30405e-07
0.00203522
1.05761e-07
0.00203517
8.05302e-08
0.00203513
5.46669e-08
0.0020351
2.81208e-08
0.00203508
8.41925e-10
0.00203508
-2.72227e-08
0.00203509
-5.61262e-08
0.00203512
-8.5925e-08
0.00203516
-1.16676e-07
0.00203522
-1.48438e-07
0.00203529
-1.81273e-07
0.00203538
-2.15243e-07
0.00203548
-2.50413e-07
0.0020356
-2.86851e-07
0.00203574
-3.24625e-07
0.0020359
-3.6381e-07
0.00203608
-4.04478e-07
0.00203628
-4.46709e-07
0.0020365
-4.90585e-07
0.00203674
-5.3619e-07
0.002037
-5.83613e-07
0.00203729
-6.32947e-07
0.0020376
-6.84289e-07
0.00203793
-7.37741e-07
0.00203829
-7.93409e-07
0.00203868
-8.51402e-07
0.0020391
-9.11837e-07
0.00203955
-9.74832e-07
0.00204003
-1.04051e-06
0.00204054
-1.109e-06
0.00204108
-1.18044e-06
0.00204166
-1.25494e-06
0.00204228
-1.33267e-06
0.00204293
-1.41374e-06
0.00204362
-1.4983e-06
0.00204436
-1.58648e-06
0.00204514
-1.67841e-06
0.00204596
-1.77424e-06
0.00204683
-1.87407e-06
0.00204776
-1.97804e-06
0.00204873
-2.08623e-06
0.00204975
-2.19876e-06
0.00205083
-2.31569e-06
0.00205197
-2.43709e-06
0.00205317
-2.563e-06
0.00205443
-2.69344e-06
0.00205576
-2.82841e-06
0.00205715
-2.96786e-06
0.00205861
-3.11174e-06
0.00206014
-3.25995e-06
0.00206175
-3.41234e-06
0.00206343
-3.56875e-06
0.00206519
-3.72896e-06
0.00206703
-3.89272e-06
0.00206895
-4.05973e-06
0.00207095
-4.22965e-06
0.00207304
-4.4021e-06
0.00207522
-4.57666e-06
0.00207748
-4.75287e-06
0.00207983
-4.93022e-06
0.00208227
-5.10818e-06
0.0020848
-5.28618e-06
0.00208742
-5.46364e-06
0.00209013
-5.63993e-06
0.00209292
-5.81444e-06
0.0020958
-5.98651e-06
0.00209877
-6.15551e-06
0.00210183
-6.32079e-06
0.00210497
-6.48173e-06
0.00210819
-6.6377e-06
0.00211148
-6.78811e-06
0.00211486
-6.93239e-06
0.0021183
-7.07001e-06
0.00212182
-7.20045e-06
0.0021254
-7.32328e-06
0.00212904
-7.43806e-06
0.00213275
-7.54445e-06
0.0021365
-7.64211e-06
0.00214031
-7.73079e-06
0.00214416
-7.81029e-06
0.00214805
-7.88042e-06
0.00215197
-7.9411e-06
0.00215593
-7.99226e-06
0.00215992
-8.0339e-06
0.00216392
-8.06604e-06
0.00216794
-8.08877e-06
0.00217198
-8.10221e-06
0.00217602
-8.10653e-06
0.00218006
-8.10191e-06
0.00218411
-8.08859e-06
0.00218814
-8.0668e-06
0.00219217
-8.03685e-06
0.00219618
-7.99901e-06
0.00220018
-7.95362e-06
0.00220415
-7.901e-06
0.00220809
-7.8415e-06
0.00221201
-7.77547e-06
0.00221589
-7.70327e-06
0.00221974
-7.62527e-06
0.00222355
-7.54183e-06
0.00222732
-7.45332e-06
0.00223104
-7.36011e-06
0.00223472
-7.26255e-06
0.00223835
-7.16101e-06
0.00224193
-7.05584e-06
0.00224546
-6.94737e-06
0.00224893
-6.83596e-06
0.00225235
-6.72193e-06
0.00225571
-6.60559e-06
0.00225901
-6.48725e-06
0.00226226
-6.36722e-06
0.00226544
-6.24578e-06
0.00226857
-6.12321e-06
0.00227163
-5.99978e-06
0.00227463
-5.87573e-06
0.00227757
-5.75132e-06
0.00228045
-5.62677e-06
0.00228327
-5.5023e-06
0.00228602
-5.37813e-06
0.00228871
-5.25445e-06
0.00229134
-5.13144e-06
0.00229391
-5.00928e-06
0.00229642
-4.88813e-06
0.00229887
-4.76815e-06
0.00230126
-4.64947e-06
0.00230358
-4.53223e-06
0.00230585
-4.41655e-06
0.00230807
-4.30253e-06
0.00231022
-4.19029e-06
0.00231232
-4.0799e-06
0.00231436
-3.97146e-06
0.00231635
-3.86503e-06
0.00231829
-3.76067e-06
0.00232017
-3.65845e-06
0.00232201
-3.5584e-06
0.00232379
-3.46057e-06
0.00232552
-3.36499e-06
0.00232721
-3.27168e-06
0.00232885
-3.18065e-06
0.00233044
-3.09192e-06
0.00233199
-3.00549e-06
0.0023335
-2.92135e-06
0.00233496
-2.8395e-06
0.00233638
-2.75992e-06
0.00233777
-2.6826e-06
0.00233911
-2.60751e-06
0.00234042
-2.53462e-06
0.00234169
-2.4639e-06
0.00234292
-2.39532e-06
0.00234412
-2.32883e-06
0.00234529
-2.2644e-06
0.00234643
-2.20198e-06
0.00234753
-2.14152e-06
0.0023486
-2.08298e-06
0.00234965
-2.02631e-06
0.00235066
-1.97145e-06
0.00235165
-1.91836e-06
0.00235261
-1.86699e-06
0.00235355
-1.81727e-06
0.00235446
-1.76916e-06
0.00235535
-1.72261e-06
0.00235621
-1.67756e-06
0.00235705
-1.63397e-06
0.00235787
-1.59178e-06
0.00235867
-1.55094e-06
0.00235945
-1.5114e-06
0.00236021
-1.47312e-06
0.00236095
-1.43605e-06
0.00236167
-1.40014e-06
0.00236237
-1.36534e-06
0.00236306
-1.33163e-06
0.00236372
-1.29895e-06
0.00236438
-1.26726e-06
0.00236501
-1.23653e-06
0.00236563
-1.20671e-06
0.00236624
-1.17778e-06
0.00236683
-1.14969e-06
0.00236741
-1.12242e-06
0.00236797
-1.09592e-06
0.00236852
-1.07017e-06
0.00236906
-1.04515e-06
0.00236958
-1.02081e-06
0.00237009
-9.97132e-07
0.0023706
-9.74092e-07
0.00237108
-9.51663e-07
0.00237156
-9.29819e-07
0.00237203
-9.08538e-07
0.00237249
-8.87797e-07
0.00237293
-8.67574e-07
0.00237337
-8.47848e-07
0.00237379
-8.286e-07
0.00237421
-8.09809e-07
0.00237462
-7.91459e-07
0.00237502
-7.73529e-07
0.0023754
-7.56005e-07
0.00237578
-7.38868e-07
0.00237616
-7.22104e-07
0.00237652
-7.05697e-07
0.00237687
-6.89632e-07
0.00237722
-6.73895e-07
0.00237756
-6.58473e-07
0.00237789
-6.43351e-07
0.00237821
-6.28518e-07
0.00237853
-6.13961e-07
0.00237884
-5.99669e-07
0.00237914
-5.85628e-07
0.00237944
-5.71829e-07
0.00237972
-5.58261e-07
0.00238
-5.44913e-07
0.00238028
-5.31774e-07
0.00238055
-5.18837e-07
0.00238081
-5.06089e-07
0.00238106
-4.93523e-07
0.00238131
-4.8113e-07
0.00238155
-4.689e-07
0.00238179
-4.56825e-07
0.00238202
-4.44898e-07
0.00238224
-4.33109e-07
0.00238246
-4.21451e-07
0.00238267
-4.09916e-07
0.00238288
-3.98498e-07
0.00238308
-3.87189e-07
0.00238328
-3.75981e-07
0.00238347
-3.64868e-07
0.00238365
-3.53844e-07
0.00238383
-3.42901e-07
0.002384
-3.32034e-07
0.00238417
-3.21236e-07
0.00238433
-3.10502e-07
0.00238449
-2.99824e-07
0.00238464
-2.89198e-07
0.00238479
-2.78618e-07
0.00238493
-2.6808e-07
0.00238506
-2.57576e-07
0.00238519
-2.47102e-07
0.00238532
-2.36654e-07
0.00238544
-2.26227e-07
0.00238555
-2.15814e-07
0.00238566
-2.05414e-07
0.00238576
-1.9502e-07
0.00238586
-1.8463e-07
0.00238596
-1.74238e-07
0.00238605
-1.63841e-07
0.00238613
-1.53435e-07
0.00238621
-1.43018e-07
0.00238628
-1.32585e-07
0.00238635
-1.22135e-07
0.00238641
-1.11663e-07
0.00238647
-1.01168e-07
0.00238652
-9.06485e-08
0.00238657
-8.01025e-08
0.00238661
-6.95284e-08
0.00238664
-5.89272e-08
0.00238667
-4.82982e-08
0.0023867
-3.7644e-08
0.00238672
-2.69664e-08
0.00238673
-1.62709e-08
0.00238674
-5.5627e-09
0.00238675
5.14757e-09
0.00238675
1.58473e-08
0.00238674
2.6517e-08
0.00238673
3.71288e-08
0.00238671
4.76456e-08
0.00238669
5.79991e-08
0.00238666
6.81349e-08
0.00238663
7.77846e-08
0.00238659
8.71694e-08
9.46254e-08
0.00247084
0.000190156
0.00243653
0.00014322
0.00240245
0.00011148
0.00237103
8.82086e-05
0.00234327
7.05378e-05
0.00231946
5.75801e-05
0.0022991
4.80421e-05
0.00228159
4.0813e-05
0.0022664
3.52282e-05
0.00225311
3.08507e-05
0.00224138
2.73574e-05
0.00223092
2.45196e-05
0.00222151
2.21784e-05
0.002213
2.02204e-05
0.00220524
1.8562e-05
0.00219813
1.71414e-05
0.00219157
1.59123e-05
0.00218549
1.48392e-05
0.00217983
1.38947e-05
0.00217455
1.30573e-05
0.00216959
1.231e-05
0.00216493
1.16391e-05
0.00216054
1.10334e-05
0.00215639
1.0484e-05
0.00215245
9.98326e-06
0.00214871
9.52507e-06
0.00214514
9.10418e-06
0.00214175
8.71616e-06
0.0021385
8.35728e-06
0.0021354
8.02431e-06
0.00213243
7.7145e-06
0.00212957
7.42546e-06
0.00212683
7.15511e-06
0.00212419
6.90163e-06
0.00212166
6.66343e-06
0.00211921
6.43911e-06
0.00211685
6.22743e-06
0.00211457
6.0273e-06
0.00211237
5.83773e-06
0.00211024
5.65786e-06
0.00210817
5.48693e-06
0.00210618
5.32422e-06
0.00210424
5.16914e-06
0.00210237
5.02112e-06
0.00210055
4.87966e-06
0.00209878
4.7443e-06
0.00209706
4.61465e-06
0.0020954
4.49032e-06
0.00209378
4.37098e-06
0.0020922
4.25632e-06
0.00209067
4.14606e-06
0.00208918
4.03993e-06
0.00208772
3.93769e-06
0.00208631
3.83912e-06
0.00208493
3.744e-06
0.00208359
3.65215e-06
0.00208228
3.56337e-06
0.00208101
3.47749e-06
0.00207976
3.39437e-06
0.00207855
3.31383e-06
0.00207736
3.23575e-06
0.00207621
3.15999e-06
0.00207508
3.08643e-06
0.00207398
3.01495e-06
0.00207291
2.94545e-06
0.00207186
2.87783e-06
0.00207083
2.81199e-06
0.00206983
2.74786e-06
0.00206885
2.68536e-06
0.0020679
2.62441e-06
0.00206697
2.56494e-06
0.00206605
2.50691e-06
0.00206516
2.45024e-06
0.00206429
2.39489e-06
0.00206344
2.3408e-06
0.00206261
2.28793e-06
0.0020618
2.23623e-06
0.00206101
2.18565e-06
0.00206023
2.13616e-06
0.00205948
2.08771e-06
0.00205874
2.04026e-06
0.00205801
1.99376e-06
0.00205731
1.94818e-06
0.00205662
1.90349e-06
0.00205594
1.85963e-06
0.00205528
1.81658e-06
0.00205464
1.7743e-06
0.00205401
1.73275e-06
0.0020534
1.6919e-06
0.0020528
1.65172e-06
0.00205221
1.61219e-06
0.00205164
1.57326e-06
0.00205109
1.53493e-06
0.00205054
1.49715e-06
0.00205001
1.45992e-06
0.00204949
1.4232e-06
0.00204899
1.38697e-06
0.0020485
1.35122e-06
0.00204802
1.31593e-06
0.00204755
1.28107e-06
0.0020471
1.24663e-06
0.00204665
1.21258e-06
0.00204622
1.1789e-06
0.0020458
1.14558e-06
0.00204539
1.1126e-06
0.002045
1.07992e-06
0.00204461
1.04753e-06
0.00204424
1.01541e-06
0.00204388
9.83524e-07
0.00204352
9.51853e-07
0.00204318
9.2037e-07
0.00204285
8.89048e-07
0.00204253
8.5786e-07
0.00204223
8.26778e-07
0.00204193
7.95772e-07
0.00204164
7.64812e-07
0.00204136
7.33868e-07
0.0020411
7.02906e-07
0.00204084
6.71894e-07
0.0020406
6.40797e-07
0.00204036
6.09578e-07
0.00204014
5.782e-07
0.00203992
5.46623e-07
0.00203972
5.14804e-07
0.00203953
4.82701e-07
0.00203934
4.50267e-07
0.00203917
4.17453e-07
0.00203901
3.84211e-07
0.00203886
3.50485e-07
0.00203872
3.16222e-07
0.0020386
2.81363e-07
0.00203848
2.45848e-07
0.00203838
2.09615e-07
0.00203829
1.72597e-07
0.00203821
1.34729e-07
0.00203814
9.59388e-08
0.00203808
5.61558e-08
0.00203804
1.53058e-08
0.00203801
-2.66875e-08
0.00203799
-6.99023e-08
0.00203799
-1.1442e-07
0.002038
-1.60323e-07
0.00203803
-2.07699e-07
0.00203807
-2.56636e-07
0.00203813
-3.07225e-07
0.0020382
-3.59561e-07
0.00203829
-4.13743e-07
0.00203839
-4.69871e-07
0.00203852
-5.28053e-07
0.00203866
-5.88398e-07
0.00203882
-6.5102e-07
0.002039
-7.16041e-07
0.0020392
-7.83586e-07
0.00203942
-8.53787e-07
0.00203966
-9.26782e-07
0.00203993
-1.00272e-06
0.00204022
-1.08174e-06
0.00204053
-1.16401e-06
0.00204087
-1.24971e-06
0.00204123
-1.33899e-06
0.00204162
-1.43204e-06
0.00204204
-1.52905e-06
0.00204249
-1.63021e-06
0.00204297
-1.73573e-06
0.00204348
-1.8458e-06
0.00204403
-1.96065e-06
0.00204461
-2.08047e-06
0.00204523
-2.20548e-06
0.00204589
-2.3359e-06
0.00204659
-2.47193e-06
0.00204733
-2.61377e-06
0.00204811
-2.76163e-06
0.00204894
-2.91568e-06
0.00204982
-3.0761e-06
0.00205074
-3.24303e-06
0.00205172
-3.41662e-06
0.00205276
-3.59695e-06
0.00205385
-3.78411e-06
0.002055
-3.97813e-06
0.00205621
-4.17903e-06
0.00205748
-4.38675e-06
0.00205883
-4.60121e-06
0.00206024
-4.82227e-06
0.00206172
-5.04974e-06
0.00206327
-5.28336e-06
0.0020649
-5.52283e-06
0.00206661
-5.76776e-06
0.0020684
-6.01773e-06
0.00207027
-6.27221e-06
0.00207222
-6.53065e-06
0.00207426
-6.7924e-06
0.00207639
-7.05678e-06
0.00207861
-7.32303e-06
0.00208091
-7.59035e-06
0.00208331
-7.85787e-06
0.00208579
-8.12471e-06
0.00208837
-8.38993e-06
0.00209103
-8.65258e-06
0.00209379
-8.9117e-06
0.00209664
-9.1663e-06
0.00209957
-9.41541e-06
0.00210259
-9.65806e-06
0.0021057
-9.89333e-06
0.00210889
-1.01203e-05
0.00211215
-1.03381e-05
0.0021155
-1.05459e-05
0.00211892
-1.0743e-05
0.00212241
-1.09286e-05
0.00212597
-1.11022e-05
0.00212959
-1.12631e-05
0.00213327
-1.14109e-05
0.00213701
-1.15452e-05
0.0021408
-1.16657e-05
0.00214463
-1.17721e-05
0.0021485
-1.18643e-05
0.00215241
-1.19421e-05
0.00215635
-1.20056e-05
0.00216032
-1.20548e-05
0.0021643
-1.20899e-05
0.00216831
-1.2111e-05
0.00217233
-1.21184e-05
0.00217635
-1.21123e-05
0.00218038
-1.20932e-05
0.0021844
-1.20613e-05
0.00218842
-1.20172e-05
0.00219243
-1.19613e-05
0.00219642
-1.1894e-05
0.0022004
-1.18159e-05
0.00220435
-1.17274e-05
0.00220827
-1.16292e-05
0.00221217
-1.15217e-05
0.00221603
-1.14055e-05
0.00221986
-1.12812e-05
0.00222365
-1.11493e-05
0.0022274
-1.10103e-05
0.0022311
-1.08649e-05
0.00223476
-1.07134e-05
0.00223837
-1.05566e-05
0.00224193
-1.03948e-05
0.00224544
-1.02286e-05
0.00224889
-1.00584e-05
0.00225229
-9.88484e-06
0.00225563
-9.70825e-06
0.00225891
-9.52912e-06
0.00226213
-9.34788e-06
0.0022653
-9.16493e-06
0.0022684
-8.98067e-06
0.00227145
-8.79548e-06
0.00227443
-8.60973e-06
0.00227735
-8.42376e-06
0.00228021
-8.23789e-06
0.00228301
-8.05244e-06
0.00228574
-7.8677e-06
0.00228842
-7.68394e-06
0.00229103
-7.50144e-06
0.00229358
-7.32042e-06
0.00229607
-7.14113e-06
0.0022985
-6.96377e-06
0.00230088
-6.78853e-06
0.00230319
-6.61561e-06
0.00230544
-6.44516e-06
0.00230764
-6.27734e-06
0.00230978
-6.11227e-06
0.00231186
-5.9501e-06
0.00231389
-5.79092e-06
0.00231587
-5.63484e-06
0.00231779
-5.48193e-06
0.00231967
-5.33227e-06
0.00232149
-5.18592e-06
0.00232326
-5.04292e-06
0.00232498
-4.90331e-06
0.00232665
-4.76712e-06
0.00232828
-4.63436e-06
0.00232987
-4.50504e-06
0.0023314
-4.37916e-06
0.0023329
-4.2567e-06
0.00233436
-4.13764e-06
0.00233577
-4.02196e-06
0.00233715
-3.90961e-06
0.00233848
-3.80057e-06
0.00233978
-3.69477e-06
0.00234104
-3.59218e-06
0.00234227
-3.49272e-06
0.00234347
-3.39634e-06
0.00234463
-3.30296e-06
0.00234576
-3.21253e-06
0.00234686
-3.12497e-06
0.00234792
-3.04021e-06
0.00234896
-2.95816e-06
0.00234997
-2.87875e-06
0.00235096
-2.80191e-06
0.00235192
-2.72755e-06
0.00235285
-2.65559e-06
0.00235376
-2.58596e-06
0.00235464
-2.51858e-06
0.0023555
-2.45337e-06
0.00235634
-2.39026e-06
0.00235716
-2.32916e-06
0.00235796
-2.27002e-06
0.00235874
-2.21274e-06
0.00235949
-2.15728e-06
0.00236023
-2.10354e-06
0.00236095
-2.05148e-06
0.00236165
-2.00103e-06
0.00236234
-1.95212e-06
0.002363
-1.90469e-06
0.00236366
-1.85869e-06
0.00236429
-1.81405e-06
0.00236491
-1.77074e-06
0.00236552
-1.72868e-06
0.00236611
-1.68784e-06
0.00236669
-1.64816e-06
0.00236725
-1.6096e-06
0.00236781
-1.57211e-06
0.00236834
-1.53565e-06
0.00236887
-1.50018e-06
0.00236938
-1.46566e-06
0.00236989
-1.43205e-06
0.00237038
-1.39931e-06
0.00237086
-1.36741e-06
0.00237132
-1.33632e-06
0.00237178
-1.30601e-06
0.00237223
-1.27643e-06
0.00237267
-1.24757e-06
0.0023731
-1.21939e-06
0.00237351
-1.19187e-06
0.00237392
-1.16498e-06
0.00237432
-1.13869e-06
0.00237471
-1.11298e-06
0.0023751
-1.08783e-06
0.00237547
-1.06321e-06
0.00237583
-1.0391e-06
0.00237619
-1.01548e-06
0.00237654
-9.92328e-07
0.00237688
-9.69628e-07
0.00237721
-9.47358e-07
0.00237754
-9.255e-07
0.00237786
-9.04037e-07
0.00237817
-8.8295e-07
0.00237847
-8.62224e-07
0.00237877
-8.41843e-07
0.00237906
-8.2179e-07
0.00237934
-8.02051e-07
0.00237962
-7.82611e-07
0.00237989
-7.63456e-07
0.00238015
-7.44572e-07
0.00238041
-7.25944e-07
0.00238066
-7.07562e-07
0.00238091
-6.89411e-07
0.00238114
-6.7148e-07
0.00238138
-6.53756e-07
0.0023816
-6.36228e-07
0.00238182
-6.18884e-07
0.00238204
-6.01714e-07
0.00238225
-5.84706e-07
0.00238245
-5.6785e-07
0.00238265
-5.51136e-07
0.00238284
-5.34555e-07
0.00238302
-5.18095e-07
0.0023832
-5.01748e-07
0.00238338
-4.85505e-07
0.00238355
-4.69356e-07
0.00238371
-4.53293e-07
0.00238387
-4.37307e-07
0.00238403
-4.2139e-07
0.00238417
-4.05535e-07
0.00238432
-3.89732e-07
0.00238445
-3.73975e-07
0.00238458
-3.58256e-07
0.00238471
-3.42568e-07
0.00238483
-3.26904e-07
0.00238495
-3.11257e-07
0.00238506
-2.95621e-07
0.00238517
-2.79991e-07
0.00238527
-2.64359e-07
0.00238536
-2.48721e-07
0.00238545
-2.33071e-07
0.00238554
-2.17404e-07
0.00238562
-2.01716e-07
0.00238569
-1.86002e-07
0.00238576
-1.70259e-07
0.00238582
-1.54484e-07
0.00238588
-1.38675e-07
0.00238594
-1.22829e-07
0.00238598
-1.06945e-07
0.00238603
-9.10255e-08
0.00238606
-7.50703e-08
0.0023861
-5.90836e-08
0.00238612
-4.30705e-08
0.00238614
-2.70399e-08
0.00238616
-1.10034e-08
0.00238617
5.02096e-09
0.00238618
2.10091e-08
0.00238618
3.69253e-08
0.00238617
5.27226e-08
0.00238616
6.83249e-08
0.00238615
8.3657e-08
0.00238612
9.84684e-08
0.0023861
1.12918e-07
1.25469e-07
0.00248171
0.000198929
0.00246142
0.00016351
0.00243772
0.000135181
0.00241325
0.000112672
0.00238935
9.44427e-05
0.00236701
7.99187e-05
0.00234662
6.8432e-05
0.00232818
5.92543e-05
0.00231156
5.18459e-05
0.00229659
4.58189e-05
0.00228308
4.08682e-05
0.00227084
3.67571e-05
0.00225971
3.33076e-05
0.00224954
3.03847e-05
0.00224022
2.78849e-05
0.00223163
2.57282e-05
0.00222369
2.38521e-05
0.00221632
2.22081e-05
0.00220946
2.07574e-05
0.00220305
1.94692e-05
0.00219704
1.83185e-05
0.00219139
1.72851e-05
0.00218607
1.63525e-05
0.00218105
1.55069e-05
0.00217629
1.47371e-05
0.00217178
1.40334e-05
0.0021675
1.33878e-05
0.00216342
1.27935e-05
0.00215953
1.22447e-05
0.00215582
1.17364e-05
0.00215227
1.12643e-05
0.00214887
1.08246e-05
0.00214561
1.04142e-05
0.00214248
1.00301e-05
0.00213947
9.66983e-06
0.00213658
9.33124e-06
0.00213379
9.01235e-06
0.00213111
8.71144e-06
0.00212852
8.42698e-06
0.00212602
8.15761e-06
0.0021236
7.90209e-06
0.00212126
7.65934e-06
0.002119
7.42839e-06
0.00211682
7.20835e-06
0.0021147