/*--------------------------------*- C++ -*----------------------------------*\
| =========                 |                                                 |
| \\      /  F ield         | OpenFOAM: The Open Source CFD Toolbox           |
|  \\    /   O peration     | Version:  2506                                  |
|   \\  /    A nd           | Website:  www.openfoam.com                      |
|    \\/     M anipulation  |                                                 |
\*---------------------------------------------------------------------------*/
FoamFile
{
    version     2.0;
    format      ascii;
    arch        "LSB;label=32;scalar=64";
    class       volVectorField;
    location    "200";
    object      U;
}
// * * * * * * * * * * * * * * * * * * * * * * * * * * * * * * * * * * * * * //

dimensions      [0 1 -1 0 0 0 0];

internalField   nonuniform List<vector> 
131949
(
(9.79004 0.508689 0)
(9.35424 0.191714 0)
(9.14347 0.0846508 0)
(9.05445 0.0439438 0)
(8.9841 0.0272989 0)
(8.92309 0.0209423 0)
(8.87485 0.0179364 0)
(8.83501 0.015877 0)
(8.80009 0.0142907 0)
(8.76899 0.0130189 0)
(8.74108 0.0119515 0)
(8.71576 0.0110361 0)
(8.69256 0.0102453 0)
(8.67115 0.00955648 0)
(8.65128 0.00895124 0)
(8.63274 0.00841544 0)
(8.61537 0.00793798 0)
(8.59903 0.00750988 0)
(8.5836 0.00712385 0)
(8.569 0.00677395 0)
(8.55513 0.00645529 0)
(8.54194 0.00616381 0)
(8.52936 0.00589613 0)
(8.51734 0.00564938 0)
(8.50584 0.00542115 0)
(8.49481 0.00520937 0)
(8.48422 0.00501228 0)
(8.47404 0.00482834 0)
(8.46424 0.00465623 0)
(8.4548 0.0044948 0)
(8.44569 0.00434303 0)
(8.43689 0.00420003 0)
(8.42839 0.00406502 0)
(8.42016 0.0039373 0)
(8.41219 0.00381625 0)
(8.40448 0.00370133 0)
(8.397 0.00359204 0)
(8.38974 0.00348794 0)
(8.38269 0.00338865 0)
(8.37585 0.0032938 0)
(8.3692 0.00320309 0)
(8.36274 0.00311622 0)
(8.35645 0.00303294 0)
(8.35033 0.00295302 0)
(8.34438 0.00287624 0)
(8.33858 0.00280242 0)
(8.33293 0.00273136 0)
(8.32742 0.00266291 0)
(8.32206 0.00259693 0)
(8.31683 0.00253326 0)
(8.31172 0.00247178 0)
(8.30675 0.00241237 0)
(8.30189 0.00235492 0)
(8.29715 0.00229931 0)
(8.29252 0.00224545 0)
(8.288 0.00219325 0)
(8.28359 0.00214261 0)
(8.27928 0.00209345 0)
(8.27507 0.00204569 0)
(8.27095 0.00199927 0)
(8.26693 0.00195411 0)
(8.263 0.00191015 0)
(8.25916 0.00186732 0)
(8.25541 0.00182559 0)
(8.25174 0.00178489 0)
(8.24815 0.00174518 0)
(8.24464 0.00170642 0)
(8.24121 0.00166857 0)
(8.23786 0.0016316 0)
(8.23458 0.00159546 0)
(8.23138 0.00156012 0)
(8.22824 0.00152557 0)
(8.22518 0.00149176 0)
(8.22218 0.00145867 0)
(8.21925 0.00142627 0)
(8.21639 0.00139454 0)
(8.21359 0.00136345 0)
(8.21085 0.00133297 0)
(8.20818 0.00130309 0)
(8.20556 0.00127378 0)
(8.203 0.00124502 0)
(8.20051 0.00121678 0)
(8.19806 0.00118903 0)
(8.19568 0.00116176 0)
(8.19335 0.00113495 0)
(8.19107 0.00110856 0)
(8.18884 0.0010826 0)
(8.18667 0.00105702 0)
(8.18455 0.00103183 0)
(8.18248 0.001007 0)
(8.18046 0.00098251 0)
(8.17849 0.000958355 0)
(8.17657 0.000934518 0)
(8.17469 0.000910987 0)
(8.17286 0.000887746 0)
(8.17108 0.000864786 0)
(8.16935 0.000842092 0)
(8.16766 0.000819654 0)
(8.16601 0.000797457 0)
(8.16441 0.00077549 0)
(8.16286 0.000753738 0)
(8.16134 0.000732189 0)
(8.15987 0.000710827 0)
(8.15845 0.00068964 0)
(8.15706 0.000668609 0)
(8.15572 0.000647721 0)
(8.15442 0.000626958 0)
(8.15316 0.000606305 0)
(8.15194 0.000585741 0)
(8.15077 0.000565251 0)
(8.14963 0.000544814 0)
(8.14854 0.000524412 0)
(8.14748 0.000504023 0)
(8.14647 0.000483629 0)
(8.1455 0.000463205 0)
(8.14456 0.000442732 0)
(8.14367 0.000422183 0)
(8.14282 0.000401536 0)
(8.14201 0.000380764 0)
(8.14124 0.000359841 0)
(8.14052 0.000338737 0)
(8.13983 0.000317424 0)
(8.13919 0.000295869 0)
(8.13859 0.000274039 0)
(8.13803 0.0002519 0)
(8.13752 0.000229415 0)
(8.13705 0.000206545 0)
(8.13663 0.00018325 0)
(8.13625 0.000159489 0)
(8.13592 0.000135217 0)
(8.13564 0.000110388 0)
(8.1354 8.49558e-05 0)
(8.13522 5.88701e-05 0)
(8.13508 3.20803e-05 0)
(8.135 4.53351e-06 0)
(8.13498 -2.38245e-05 0)
(8.13501 -5.30501e-05 0)
(8.13509 -8.32011e-05 0)
(8.13524 -0.000114337 0)
(8.13545 -0.00014652 0)
(8.13572 -0.000179813 0)
(8.13605 -0.000214282 0)
(8.13645 -0.000249994 0)
(8.13693 -0.00028702 0)
(8.13747 -0.00032543 0)
(8.13809 -0.000365303 0)
(8.13878 -0.000406713 0)
(8.13956 -0.000449743 0)
(8.14042 -0.000494475 0)
(8.14137 -0.000540999 0)
(8.14241 -0.000589404 0)
(8.14354 -0.000639786 0)
(8.14477 -0.000692242 0)
(8.14611 -0.000746878 0)
(8.14755 -0.000803796 0)
(8.14909 -0.000863113 0)
(8.15076 -0.000924938 0)
(8.15254 -0.000989396 0)
(8.15445 -0.0010566 0)
(8.15649 -0.00112669 0)
(8.15867 -0.00119979 0)
(8.16099 -0.00127603 0)
(8.16345 -0.00135553 0)
(8.16608 -0.00143845 0)
(8.16886 -0.0015249 0)
(8.17181 -0.00161502 0)
(8.17493 -0.00170894 0)
(8.17824 -0.00180679 0)
(8.18174 -0.00190866 0)
(8.18543 -0.00201469 0)
(8.18933 -0.00212496 0)
(8.19345 -0.00223956 0)
(8.19779 -0.00235856 0)
(8.20236 -0.00248202 0)
(8.20718 -0.00260995 0)
(8.21224 -0.00274238 0)
(8.21756 -0.00287928 0)
(8.22315 -0.00302062 0)
(8.22902 -0.0031663 0)
(8.23517 -0.00331624 0)
(8.24162 -0.00347028 0)
(8.24838 -0.00362823 0)
(8.25544 -0.00378988 0)
(8.26282 -0.00395497 0)
(8.27053 -0.00412319 0)
(8.27858 -0.0042942 0)
(8.28696 -0.0044676 0)
(8.29568 -0.00464299 0)
(8.30476 -0.00481989 0)
(8.31419 -0.0049978 0)
(8.32397 -0.00517618 0)
(8.33411 -0.00535449 0)
(8.34461 -0.00553211 0)
(8.35546 -0.00570844 0)
(8.36667 -0.00588286 0)
(8.37824 -0.00605474 0)
(8.39014 -0.00622342 0)
(8.40239 -0.00638828 0)
(8.41498 -0.00654868 0)
(8.42789 -0.00670402 8.90417e-105)
(8.44112 -0.0068537 -8.90306e-105)
(8.45465 -0.00699715 0)
(8.46848 -0.00713385 0)
(8.48259 -0.0072633 0)
(8.49697 -0.00738504 0)
(8.5116 -0.00749867 0)
(8.52646 -0.00760382 0)
(8.54154 -0.00770019 0)
(8.55683 -0.00778751 0)
(8.5723 -0.00786557 0)
(8.58794 -0.00793422 0)
(8.60372 -0.00799336 0)
(8.61963 -0.00804293 0)
(8.63566 -0.00808292 0)
(8.65177 -0.00811338 0)
(8.66795 -0.00813439 0)
(8.68418 -0.00814608 0)
(8.70045 -0.00814861 0)
(8.71673 -0.00814218 0)
(8.73301 -0.00812702 0)
(8.74926 -0.00810338 0)
(8.76548 -0.00807155 0)
(8.78164 -0.00803184 0)
(8.79773 -0.00798455 0)
(8.81374 -0.00793005 0)
(8.82964 -0.00786865 0)
(8.84543 -0.00780074 0)
(8.86109 -0.00772667 0)
(8.8766 -0.00764682 0)
(8.89197 -0.00756154 0)
(8.90717 -0.00747122 0)
(8.92219 -0.00737622 0)
(8.93703 -0.00727692 0)
(8.95167 -0.00717366 0)
(8.96611 -0.00706682 0)
(8.98034 -0.00695672 0)
(8.99436 -0.00684373 0)
(9.00815 -0.00672817 0)
(9.02172 -0.00661035 0)
(9.03505 -0.00649061 0)
(9.04814 -0.00636922 0)
(9.061 -0.0062465 0)
(9.07361 -0.00612271 0)
(9.08597 -0.00599812 0)
(9.09809 -0.005873 0)
(9.10995 -0.00574758 0)
(9.12157 -0.0056221 0)
(9.13294 -0.00549678 0)
(9.14405 -0.00537183 0)
(9.15492 -0.00524744 0)
(9.16553 -0.0051238 0)
(9.1759 -0.00500109 0)
(9.18602 -0.00487947 0)
(9.1959 -0.00475908 0)
(9.20553 -0.00464007 0)
(9.21493 -0.00452256 0)
(9.22409 -0.00440667 0)
(9.23301 -0.00429252 0)
(9.24171 -0.00418019 0)
(9.25018 -0.00406978 0)
(9.25843 -0.00396135 0)
(9.26645 -0.00385498 0)
(9.27427 -0.00375073 0)
(9.28187 -0.00364865 0)
(9.28926 -0.00354877 0)
(9.29646 -0.00345114 0)
(9.30345 -0.00335577 0)
(9.31025 -0.00326269 0)
(9.31687 -0.00317191 0)
(9.3233 -0.00308343 0)
(9.32955 -0.00299725 0)
(9.33562 -0.00291337 0)
(9.34153 -0.00283176 0)
(9.34726 -0.00275243 0)
(9.35284 -0.00267533 0)
(9.35826 -0.00260046 0)
(9.36353 -0.00252777 0)
(9.36866 -0.00245724 0)
(9.37364 -0.00238883 0)
(9.37848 -0.00232249 0)
(9.38318 -0.00225819 0)
(9.38776 -0.00219589 0)
(9.39221 -0.00213553 0)
(9.39653 -0.00207708 0)
(9.40074 -0.00202047 0)
(9.40483 -0.00196567 0)
(9.40881 -0.00191262 0)
(9.41269 -0.00186127 0)
(9.41646 -0.00181157 0)
(9.42012 -0.00176347 0)
(9.4237 -0.00171691 0)
(9.42717 -0.00167185 0)
(9.43056 -0.00162824 0)
(9.43386 -0.00158603 0)
(9.43707 -0.00154516 0)
(9.4402 -0.00150559 0)
(9.44324 -0.00146728 0)
(9.44621 -0.00143017 0)
(9.44911 -0.00139422 0)
(9.45193 -0.0013594 0)
(9.45469 -0.00132565 0)
(9.45737 -0.00129293 0)
(9.45999 -0.00126121 0)
(9.46254 -0.00123045 0)
(9.46503 -0.00120061 0)
(9.46746 -0.00117165 0)
(9.46984 -0.00114353 0)
(9.47215 -0.00111624 0)
(9.47441 -0.00108972 0)
(9.47662 -0.00106396 0)
(9.47877 -0.00103892 0)
(9.48088 -0.00101457 0)
(9.48293 -0.000990883 0)
(9.48494 -0.00096784 0)
(9.4869 -0.000945407 0)
(9.48881 -0.000923566 0)
(9.49068 -0.000902286 0)
(9.49251 -0.000881553 0)
(9.4943 -0.000861337 0)
(9.49604 -0.000841624 0)
(9.49775 -0.000822387 0)
(9.49941 -0.000803614 0)
(9.50104 -0.00078528 0)
(9.50263 -0.000767373 0)
(9.50419 -0.000749869 0)
(9.50571 -0.000732759 0)
(9.50719 -0.00071602 0)
(9.50864 -0.000699643 0)
(9.51006 -0.000683607 0)
(9.51145 -0.000667903 0)
(9.5128 -0.000652513 0)
(9.51413 -0.000637428 0)
(9.51542 -0.000622631 0)
(9.51668 -0.000608114 0)
(9.51792 -0.000593859 0)
(9.51912 -0.000579862 0)
(9.5203 -0.000566104 0)
(9.52145 -0.000552581 0)
(9.52257 -0.000539276 0)
(9.52366 -0.000526185 0)
(9.52473 -0.000513293 0)
(9.52577 -0.000500595 0)
(9.52679 -0.000488077 0)
(9.52778 -0.000475735 0)
(9.52875 -0.000463555 0)
(9.52969 -0.000451534 0)
(9.53061 -0.000439657 0)
(9.5315 -0.000427923 0)
(9.53237 -0.000416318 0)
(9.53322 -0.000404839 0)
(9.53405 -0.000393475 0)
(9.53485 -0.000382222 0)
(9.53563 -0.000371069 0)
(9.53638 -0.000360015 0)
(9.53712 -0.000349046 0)
(9.53783 -0.000338162 0)
(9.53852 -0.000327351 0)
(9.53919 -0.000316612 0)
(9.53983 -0.000305934 0)
(9.54046 -0.000295316 0)
(9.54106 -0.000284747 0)
(9.54164 -0.000274226 0)
(9.54221 -0.000263744 0)
(9.54275 -0.000253299 0)
(9.54327 -0.000242882 0)
(9.54376 -0.000232492 0)
(9.54424 -0.00022212 0)
(9.5447 -0.000211766 0)
(9.54513 -0.00020142 0)
(9.54555 -0.000191083 0)
(9.54594 -0.000180745 0)
(9.54632 -0.000170408 0)
(9.54667 -0.000160061 0)
(9.547 -0.000149708 0)
(9.54732 -0.000139339 0)
(9.54761 -0.000128955 0)
(9.54788 -0.000118548 0)
(9.54813 -0.000108121 0)
(9.54836 -9.76656e-05 0)
(9.54856 -8.71842e-05 0)
(9.54875 -7.66695e-05 0)
(9.54892 -6.61252e-05 0)
(9.54906 -5.55448e-05 0)
(9.54918 -4.49327e-05 0)
(9.54929 -3.42841e-05 0)
(9.54937 -2.36051e-05 0)
(9.54943 -1.28929e-05 0)
(9.54947 -2.15629e-06 0)
(9.54948 8.60418e-06 0)
(9.54948 1.93756e-05 0)
(9.54945 3.01519e-05 0)
(9.5494 4.09126e-05 0)
(9.54934 5.16407e-05 0)
(9.54925 6.22964e-05 0)
(9.54913 7.28479e-05 0)
(9.549 8.31714e-05 0)
(9.54885 9.33283e-05 0)
(9.54867 0.000102565 0)
(9.54852 0.000112831 0)
(9.54817 0.00012055 0)
(9.89636 0.592424 0)
(9.64869 0.329294 0)
(9.44655 0.219647 0)
(9.30555 0.153609 0)
(9.19291 0.111373 0)
(9.10039 0.0866016 0)
(9.02662 0.0710442 0)
(8.9667 0.0601348 0)
(8.91618 0.0521512 0)
(8.87266 0.0461314 0)
(8.83464 0.0414086 0)
(8.80096 0.0375841 0)
(8.77075 0.0344201 0)
(8.74337 0.0317562 0)
(8.71837 0.0294791 0)
(8.69536 0.0275077 0)
(8.67407 0.0257829 0)
(8.65426 0.0242601 0)
(8.63575 0.0229047 0)
(8.61838 0.0216899 0)
(8.60202 0.0205943 0)
(8.58657 0.0196006 0)
(8.57194 0.0186949 0)
(8.55804 0.0178657 0)
(8.54481 0.0171033 0)
(8.5322 0.0163997 0)
(8.52014 0.0157481 0)
(8.50861 0.0151428 0)
(8.49755 0.0145788 0)
(8.48693 0.0140518 0)
(8.47672 0.0135581 0)
(8.4669 0.0130946 0)
(8.45743 0.0126583 0)
(8.4483 0.0122467 0)
(8.43949 0.0118578 0)
(8.43097 0.0114895 0)
(8.42273 0.01114 0)
(8.41476 0.010808 0)
(8.40703 0.0104919 0)
(8.39955 0.0101906 0)
(8.39229 0.00990295 0)
(8.38524 0.00962798 0)
(8.3784 0.00936481 0)
(8.37175 0.00911262 0)
(8.36529 0.0088707 0)
(8.35901 0.00863839 0)
(8.3529 0.00841508 0)
(8.34696 0.00820024 0)
(8.34117 0.00799335 0)
(8.33553 0.00779396 0)
(8.33004 0.00760163 0)
(8.32469 0.00741597 0)
(8.31947 0.0072366 0)
(8.31439 0.00706319 0)
(8.30943 0.00689539 0)
(8.30459 0.00673291 0)
(8.29987 0.00657546 0)
(8.29526 0.00642276 0)
(8.29076 0.00627457 0)
(8.28637 0.00613064 0)
(8.28208 0.00599076 0)
(8.27789 0.00585471 0)
(8.2738 0.00572231 0)
(8.2698 0.00559336 0)
(8.2659 0.00546772 0)
(8.26208 0.00534522 0)
(8.25835 0.00522572 0)
(8.25471 0.0051091 0)
(8.25115 0.00499522 0)
(8.24767 0.00488399 0)
(8.24427 0.00477529 0)
(8.24094 0.00466902 0)
(8.23769 0.0045651 0)
(8.23451 0.00446344 0)
(8.23141 0.00436394 0)
(8.22837 0.00426655 0)
(8.22541 0.00417116 0)
(8.22251 0.00407772 0)
(8.21967 0.00398614 0)
(8.2169 0.00389635 0)
(8.21419 0.00380828 0)
(8.21155 0.00372185 0)
(8.20896 0.003637 0)
(8.20644 0.00355366 0)
(8.20397 0.00347176 0)
(8.20156 0.00339123 0)
(8.1992 0.00331202 0)
(8.1969 0.00323406 0)
(8.19465 0.00315731 0)
(8.19246 0.0030817 0)
(8.19032 0.00300719 0)
(8.18823 0.00293374 0)
(8.18619 0.00286129 0)
(8.1842 0.0027898 0)
(8.18226 0.00271924 0)
(8.18037 0.00264957 0)
(8.17853 0.00258074 0)
(8.17674 0.00251272 0)
(8.17499 0.00244547 0)
(8.17328 0.00237896 0)
(8.17163 0.00231315 0)
(8.17002 0.00224799 0)
(8.16845 0.00218346 0)
(8.16692 0.00211949 0)
(8.16545 0.00205606 0)
(8.16401 0.00199312 0)
(8.16262 0.00193062 0)
(8.16126 0.00186851 0)
(8.15996 0.00180674 0)
(8.15869 0.00174526 0)
(8.15746 0.00168402 0)
(8.15628 0.00162295 0)
(8.15514 0.00156201 0)
(8.15404 0.00150113 0)
(8.15297 0.00144025 0)
(8.15195 0.00137931 0)
(8.15098 0.00131824 0)
(8.15004 0.00125698 0)
(8.14914 0.00119544 0)
(8.14828 0.00113356 0)
(8.14747 0.00107126 0)
(8.1467 0.00100845 0)
(8.14596 0.000945046 0)
(8.14527 0.000880955 0)
(8.14462 0.00081608 0)
(8.14402 0.00075032 0)
(8.14346 0.000683568 0)
(8.14294 0.000615711 0)
(8.14246 0.000546631 0)
(8.14203 0.000476207 0)
(8.14165 0.00040431 0)
(8.14131 0.000330807 0)
(8.14102 0.000255559 0)
(8.14078 0.000178423 0)
(8.14059 9.92498e-05 0)
(8.14045 1.78866e-05 0)
(8.14036 -6.58255e-05 0)
(8.14032 -0.000152049 0)
(8.14034 -0.000240953 0)
(8.14041 -0.00033271 0)
(8.14055 -0.000427501 0)
(8.14074 -0.000525509 0)
(8.141 -0.000626925 0)
(8.14131 -0.000731945 0)
(8.1417 -0.000840773 0)
(8.14215 -0.00095362 0)
(8.14268 -0.0010707 0)
(8.14327 -0.00119225 0)
(8.14395 -0.00131849 0)
(8.1447 -0.00144967 0)
(8.14553 -0.00158605 0)
(8.14645 -0.00172789 0)
(8.14745 -0.00187547 0)
(8.14855 -0.00202907 0)
(8.14974 -0.00218901 0)
(8.15103 -0.00235558 0)
(8.15243 -0.00252913 0)
(8.15393 -0.00270998 0)
(8.15554 -0.00289849 0)
(8.15727 -0.00309503 0)
(8.15912 -0.00329997 0)
(8.16109 -0.00351369 0)
(8.1632 -0.00373658 0)
(8.16545 -0.00396905 0)
(8.16783 -0.0042115 0)
(8.17037 -0.00446433 0)
(8.17307 -0.00472793 0)
(8.17592 -0.00500271 0)
(8.17895 -0.00528905 0)
(8.18215 -0.0055873 0)
(8.18554 -0.0058978 0)
(8.18912 -0.00622089 0)
(8.1929 -0.00655682 0)
(8.19689 -0.00690583 0)
(8.2011 -0.00726812 0)
(8.20553 -0.00764381 0)
(8.2102 -0.00803296 0)
(8.21511 -0.00843556 0)
(8.22028 -0.00885151 0)
(8.22571 -0.00928065 0)
(8.23141 -0.00972267 0)
(8.23739 -0.0101772 0)
(8.24367 -0.0106438 0)
(8.25024 -0.0111217 0)
(8.25711 -0.0116103 0)
(8.26431 -0.0121088 0)
(8.27182 -0.012616 0)
(8.27967 -0.0131311 0)
(8.28785 -0.0136526 0)
(8.29638 -0.0141793 0)
(8.30525 -0.0147096 0)
(8.31447 -0.0152422 0)
(8.32405 -0.0157752 0)
(8.33399 -0.016307 0)
(8.34428 -0.0168357 0)
(8.35493 -0.0173595 0)
(8.36593 -0.0178765 0)
(8.37729 -0.0183848 0)
(8.389 -0.0188824 0)
(8.40105 -0.0193676 0)
(8.41343 -0.0198384 0)
(8.42615 -0.020293 0)
(8.43919 -0.0207297 0)
(8.45254 -0.021147 0)
(8.46618 -0.0215432 0)
(8.48012 -0.021917 0)
(8.49432 -0.0222671 0)
(8.50878 -0.0225923 0)
(8.52348 -0.0228917 0)
(8.53841 -0.0231644 0)
(8.55354 -0.0234098 0)
(8.56886 -0.0236273 0)
(8.58436 -0.0238165 0)
(8.6 -0.0239773 0)
(8.61578 -0.0241095 0)
(8.63168 -0.0242133 0)
(8.64767 -0.0242888 0)
(8.66374 -0.0243363 0)
(8.67986 -0.0243563 0)
(8.69603 -0.0243493 0)
(8.71221 -0.0243161 0)
(8.72839 -0.0242572 0)
(8.74456 -0.0241736 0)
(8.76069 -0.024066 0)
(8.77678 -0.0239355 0)
(8.7928 -0.023783 0)
(8.80873 -0.0236096 0)
(8.82457 -0.0234162 0)
(8.8403 -0.023204 0)
(8.85591 -0.0229741 0)
(8.87137 -0.0227275 0)
(8.88669 -0.0224654 0)
(8.90185 -0.0221888 0)
(8.91684 -0.0218989 0)
(8.93165 -0.0215968 0)
(8.94626 -0.0212834 0)
(8.96068 -0.0209599 0)
(8.97489 -0.0206272 0)
(8.98889 -0.0202864 0)
(9.00268 -0.0199384 0)
(9.01623 -0.0195841 0)
(9.02956 -0.0192246 0)
(9.04265 -0.0188606 0)
(9.05551 -0.018493 0)
(9.06813 -0.0181226 0)
(9.0805 -0.0177502 0)
(9.09263 -0.0173765 0)
(9.10451 -0.0170022 0)
(9.11614 -0.0166281 0)
(9.12752 -0.0162547 0)
(9.13866 -0.0158826 0)
(9.14955 -0.0155125 0)
(9.16019 -0.0151447 0)
(9.17058 -0.01478 0)
(9.18073 -0.0144186 0)
(9.19064 -0.0140611 0)
(9.2003 -0.0137078 0)
(9.20973 -0.0133592 0)
(9.21892 -0.0130155 0)
(9.22788 -0.012677 0)
(9.23661 -0.0123441 0)
(9.24512 -0.012017 0)
(9.2534 -0.0116958 0)
(9.26146 -0.0113809 0)
(9.26931 -0.0110723 0)
(9.27695 -0.0107702 0)
(9.28438 -0.0104748 0)
(9.29161 -0.010186 0)
(9.29864 -0.00990406 0)
(9.30548 -0.00962895 0)
(9.31213 -0.0093607 0)
(9.31859 -0.00909934 0)
(9.32488 -0.00884485 0)
(9.33099 -0.00859721 0)
(9.33693 -0.00835638 0)
(9.3427 -0.00812231 0)
(9.34831 -0.00789492 0)
(9.35377 -0.00767415 0)
(9.35907 -0.00745989 0)
(9.36422 -0.00725204 0)
(9.36923 -0.0070505 0)
(9.3741 -0.00685513 0)
(9.37884 -0.00666582 0)
(9.38344 -0.00648242 0)
(9.38792 -0.0063048 0)
(9.39228 -0.00613281 0)
(9.39651 -0.00596631 0)
(9.40063 -0.00580514 0)
(9.40464 -0.00564914 0)
(9.40854 -0.00549818 0)
(9.41234 -0.00535208 0)
(9.41603 -0.0052107 0)
(9.41963 -0.00507387 0)
(9.42313 -0.00494146 0)
(9.42654 -0.0048133 0)
(9.42986 -0.00468925 0)
(9.4331 -0.00456916 0)
(9.43625 -0.00445288 0)
(9.43932 -0.00434028 0)
(9.44232 -0.00423123 0)
(9.44524 -0.00412558 0)
(9.44808 -0.00402321 0)
(9.45086 -0.00392398 0)
(9.45356 -0.00382779 0)
(9.4562 -0.00373451 0)
(9.45878 -0.00364402 0)
(9.46129 -0.00355622 0)
(9.46374 -0.00347101 0)
(9.46614 -0.00338827 0)
(9.46848 -0.00330791 0)
(9.47076 -0.00322984 0)
(9.47298 -0.00315396 0)
(9.47516 -0.00308018 0)
(9.47728 -0.00300843 0)
(9.47936 -0.00293862 0)
(9.48138 -0.00287068 0)
(9.48336 -0.00280452 0)
(9.4853 -0.00274008 0)
(9.48719 -0.00267728 0)
(9.48904 -0.00261607 0)
(9.49084 -0.00255638 0)
(9.4926 -0.00249814 0)
(9.49433 -0.0024413 0)
(9.49601 -0.00238581 0)
(9.49766 -0.0023316 0)
(9.49927 -0.00227862 0)
(9.50084 -0.00222683 0)
(9.50238 -0.00217618 0)
(9.50388 -0.00212661 0)
(9.50535 -0.0020781 0)
(9.50679 -0.00203058 0)
(9.50819 -0.00198402 0)
(9.50956 -0.00193838 0)
(9.5109 -0.00189362 0)
(9.51221 -0.00184971 0)
(9.51349 -0.0018066 0)
(9.51474 -0.00176426 0)
(9.51596 -0.00172266 0)
(9.51715 -0.00168176 0)
(9.51832 -0.00164154 0)
(9.51946 -0.00160196 0)
(9.52057 -0.00156299 0)
(9.52165 -0.0015246 0)
(9.52271 -0.00148677 0)
(9.52374 -0.00144947 0)
(9.52475 -0.00141266 0)
(9.52573 -0.00137633 0)
(9.52668 -0.00134046 0)
(9.52762 -0.001305 0)
(9.52853 -0.00126995 0)
(9.52941 -0.00123528 0)
(9.53027 -0.00120096 0)
(9.53111 -0.00116698 0)
(9.53192 -0.00113331 0)
(9.53272 -0.00109994 0)
(9.53349 -0.00106683 0)
(9.53423 -0.00103398 0)
(9.53496 -0.00100136 0)
(9.53566 -0.000968956 0)
(9.53634 -0.000936747 0)
(9.537 -0.000904714 0)
(9.53764 -0.000872844 0)
(9.53826 -0.000841116 0)
(9.53885 -0.000809516 0)
(9.53942 -0.000778026 0)
(9.53998 -0.000746633 0)
(9.54051 -0.000715319 0)
(9.54102 -0.000684072 0)
(9.54151 -0.000652876 0)
(9.54198 -0.000621719 0)
(9.54242 -0.000590584 0)
(9.54285 -0.000559463 0)
(9.54326 -0.00052834 0)
(9.54364 -0.000497206 0)
(9.54401 -0.000466047 0)
(9.54435 -0.000434854 0)
(9.54467 -0.000403616 0)
(9.54497 -0.000372326 0)
(9.54525 -0.000340972 0)
(9.54551 -0.00030955 0)
(9.54575 -0.000278049 0)
(9.54597 -0.000246467 0)
(9.54617 -0.000214798 0)
(9.54634 -0.00018304 0)
(9.5465 -0.000151192 0)
(9.54663 -0.000119259 0)
(9.54674 -8.72425e-05 0)
(9.54683 -5.51552e-05 0)
(9.5469 -2.30092e-05 0)
(9.54695 9.17168e-06 0)
(9.54698 4.13593e-05 0)
(9.54698 7.35074e-05 0)
(9.54697 0.000105557 0)
(9.54693 0.000137412 0)
(9.54687 0.00016896 0)
(9.54679 0.000199935 0)
(9.5467 0.000230277 0)
(9.54657 0.000258671 0)
(9.54647 0.000287421 0)
(9.54618 0.000309548 0)
(9.94546 0.725982 0)
(9.82597 0.524061 0)
(9.67688 0.393759 0)
(9.54206 0.299145 0)
(9.42463 0.230655 0)
(9.3219 0.183439 0)
(9.23381 0.150378 0)
(9.15867 0.12624 0)
(9.09383 0.108168 0)
(9.03727 0.0943627 0)
(8.98753 0.0835527 0)
(8.94338 0.0748859 0)
(8.90386 0.0678013 0)
(8.86819 0.0619124 0)
(8.83578 0.0569438 0)
(8.80613 0.052697 0)
(8.77886 0.0490258 0)
(8.75365 0.0458208 0)
(8.73023 0.0429981 0)
(8.7084 0.040493 0)
(8.68796 0.0382541 0)
(8.66877 0.0362408 0)
(8.65069 0.0344203 0)
(8.63362 0.0327657 0)
(8.61745 0.031255 0)
(8.60211 0.0298698 0)
(8.58752 0.0285948 0)
(8.57362 0.0274171 0)
(8.56035 0.0263256 0)
(8.54767 0.025311 0)
(8.53552 0.0243651 0)
(8.52388 0.0234809 0)
(8.51269 0.0226524 0)
(8.50195 0.0218741 0)
(8.4916 0.0211414 0)
(8.48164 0.0204502 0)
(8.47203 0.0197968 0)
(8.46275 0.019178 0)
(8.45379 0.0185909 0)
(8.44513 0.018033 0)
(8.43675 0.0175019 0)
(8.42864 0.0169957 0)
(8.42078 0.0165124 0)
(8.41316 0.0160505 0)
(8.40577 0.0156085 0)
(8.3986 0.015185 0)
(8.39164 0.0147789 0)
(8.38487 0.0143889 0)
(8.3783 0.0140142 0)
(8.37191 0.0136537 0)
(8.36569 0.0133066 0)
(8.35965 0.0129722 0)
(8.35376 0.0126497 0)
(8.34803 0.0123385 0)
(8.34245 0.0120378 0)
(8.33701 0.0117471 0)
(8.33171 0.0114659 0)
(8.32654 0.0111937 0)
(8.3215 0.0109298 0)
(8.31659 0.010674 0)
(8.31179 0.0104257 0)
(8.30711 0.0101846 0)
(8.30255 0.00995026 0)
(8.29809 0.00972236 0)
(8.29374 0.00950058 0)
(8.2895 0.00928462 0)
(8.28535 0.0090742 0)
(8.2813 0.00886908 0)
(8.27734 0.00866901 0)
(8.27348 0.00847377 0)
(8.2697 0.00828317 0)
(8.26602 0.00809702 0)
(8.26241 0.00791515 0)
(8.25889 0.00773738 0)
(8.25545 0.00756357 0)
(8.25209 0.00739356 0)
(8.24881 0.00722721 0)
(8.2456 0.00706439 0)
(8.24247 0.00690496 0)
(8.2394 0.00674878 0)
(8.23641 0.00659572 0)
(8.23349 0.00644566 0)
(8.23063 0.00629847 0)
(8.22783 0.00615403 0)
(8.22511 0.00601222 0)
(8.22244 0.00587292 0)
(8.21984 0.00573602 0)
(8.2173 0.00560141 0)
(8.21481 0.005469 0)
(8.21239 0.00533869 0)
(8.21002 0.00521037 0)
(8.20771 0.00508398 0)
(8.20545 0.00495942 0)
(8.20325 0.00483661 0)
(8.2011 0.00471549 0)
(8.199 0.00459599 0)
(8.19696 0.00447803 0)
(8.19496 0.00436156 0)
(8.19302 0.0042465 0)
(8.19113 0.0041328 0)
(8.18929 0.00402039 0)
(8.18749 0.0039092 0)
(8.18574 0.00379917 0)
(8.18404 0.00369023 0)
(8.18239 0.0035823 0)
(8.18078 0.00347532 0)
(8.17922 0.0033692 0)
(8.1777 0.00326387 0)
(8.17623 0.00315925 0)
(8.1748 0.00305524 0)
(8.17341 0.00295177 0)
(8.17207 0.00284875 0)
(8.17077 0.00274607 0)
(8.16951 0.00264365 0)
(8.1683 0.00254138 0)
(8.16713 0.00243917 0)
(8.166 0.00233691 0)
(8.16491 0.00223449 0)
(8.16387 0.00213179 0)
(8.16287 0.0020287 0)
(8.16191 0.00192509 0)
(8.16099 0.00182083 0)
(8.16011 0.00171578 0)
(8.15928 0.00160981 0)
(8.15848 0.00150276 0)
(8.15773 0.00139446 0)
(8.15703 0.00128476 0)
(8.15636 0.00117348 0)
(8.15575 0.00106043 0)
(8.15517 0.000945423 0)
(8.15464 0.000828261 0)
(8.15415 0.000708733 0)
(8.15371 0.000586623 0)
(8.15332 0.000461704 0)
(8.15298 0.000333744 0)
(8.15268 0.000202501 0)
(8.15243 6.77269e-05 0)
(8.15223 -7.0834e-05 0)
(8.15209 -0.000213446 0)
(8.152 -0.000360381 0)
(8.15196 -0.000511921 0)
(8.15198 -0.000668354 0)
(8.15205 -0.000829979 0)
(8.15219 -0.000997103 0)
(8.15238 -0.00117005 0)
(8.15264 -0.00134913 0)
(8.15296 -0.00153471 0)
(8.15335 -0.00172712 0)
(8.15381 -0.00192674 0)
(8.15434 -0.00213395 0)
(8.15494 -0.00234915 0)
(8.15562 -0.00257274 0)
(8.15638 -0.00280518 0)
(8.15722 -0.0030469 0)
(8.15814 -0.00329839 0)
(8.15916 -0.00356015 0)
(8.16026 -0.00383268 0)
(8.16146 -0.00411654 0)
(8.16276 -0.00441228 0)
(8.16416 -0.0047205 0)
(8.16567 -0.00504181 0)
(8.16729 -0.00537682 0)
(8.16903 -0.0057262 0)
(8.17089 -0.00609061 0)
(8.17287 -0.00647072 0)
(8.17499 -0.00686722 0)
(8.17725 -0.00728079 0)
(8.17965 -0.00771213 0)
(8.1822 -0.00816191 0)
(8.1849 -0.00863079 0)
(8.18777 -0.00911941 0)
(8.19082 -0.00962838 0)
(8.19404 -0.0101582 0)
(8.19745 -0.0107095 0)
(8.20105 -0.0112826 0)
(8.20486 -0.0118779 0)
(8.20889 -0.0124956 0)
(8.21313 -0.0131359 0)
(8.21761 -0.0137989 0)
(8.22232 -0.0144844 0)
(8.22729 -0.0151921 0)
(8.23252 -0.0159217 0)
(8.23802 -0.0166726 0)
(8.24379 -0.0174439 0)
(8.24986 -0.0182348 0)
(8.25622 -0.0190439 0)
(8.2629 -0.0198701 0)
(8.26988 -0.0207116 0)
(8.2772 -0.0215666 0)
(8.28484 -0.0224332 0)
(8.29283 -0.0233091 0)
(8.30116 -0.0241919 0)
(8.30984 -0.0250791 0)
(8.31887 -0.0259678 0)
(8.32827 -0.0268551 0)
(8.33803 -0.0277382 0)
(8.34815 -0.0286138 0)
(8.35864 -0.0294788 0)
(8.36948 -0.0303299 0)
(8.38069 -0.031164 1.36912e-102)
(8.39225 -0.0319779 -1.36877e-102)
(8.40417 -0.0327685 0)
(8.41643 -0.0335327 0)
(8.42902 -0.0342676 0)
(8.44194 -0.0349705 0)
(8.45518 -0.0356387 0)
(8.46872 -0.0362699 0)
(8.48255 -0.036862 0)
(8.49666 -0.0374129 0)
(8.51103 -0.0379209 0)
(8.52565 -0.0383847 0)
(8.54049 -0.038803 0)
(8.55555 -0.039175 0)
(8.57079 -0.0394999 0)
(8.58621 -0.0397774 0)
(8.60179 -0.0400072 0)
(8.6175 -0.0401896 0)
(8.63332 -0.0403248 0)
(8.64924 -0.0404132 0)
(8.66524 -0.0404557 0)
(8.6813 -0.0404532 0)
(8.69739 -0.0404066 0)
(8.7135 -0.0403172 0)
(8.72961 -0.0401863 0)
(8.74571 -0.0400154 0)
(8.76177 -0.0398061 0)
(8.77778 -0.0395599 0)
(8.79372 -0.0392786 0)
(8.80958 -0.038964 0)
(8.82534 -0.0386177 0)
(8.84099 -0.0382417 0)
(8.85652 -0.0378377 0)
(8.8719 -0.0374076 0)
(8.88714 -0.0369532 0)
(8.90222 -0.0364764 0)
(8.91712 -0.0359789 0)
(8.93184 -0.0354625 0)
(8.94638 -0.0349289 0)
(8.96071 -0.0343799 0)
(8.97484 -0.0338171 0)
(8.98876 -0.0332421 0)
(9.00245 -0.0326564 0)
(9.01593 -0.0320616 0)
(9.02917 -0.0314592 0)
(9.04219 -0.0308505 0)
(9.05496 -0.0302369 0)
(9.0675 -0.0296197 0)
(9.07979 -0.0290001 0)
(9.09184 -0.0283793 0)
(9.10364 -0.0277584 0)
(9.1152 -0.0271385 0)
(9.12651 -0.0265205 0)
(9.13757 -0.0259055 0)
(9.14839 -0.0252944 0)
(9.15896 -0.0246879 0)
(9.16928 -0.0240868 0)
(9.17936 -0.0234919 0)
(9.18921 -0.0229039 0)
(9.19881 -0.0223234 0)
(9.20817 -0.0217508 0)
(9.2173 -0.0211869 0)
(9.2262 -0.020632 0)
(9.23487 -0.0200866 0)
(9.24332 -0.019551 0)
(9.25155 -0.0190256 0)
(9.25956 -0.0185107 0)
(9.26735 -0.0180065 0)
(9.27494 -0.0175133 0)
(9.28232 -0.0170312 0)
(9.2895 -0.0165603 0)
(9.29649 -0.0161008 0)
(9.30328 -0.0156527 0)
(9.30989 -0.0152161 0)
(9.31631 -0.0147908 0)
(9.32255 -0.014377 0)
(9.32862 -0.0139746 0)
(9.33453 -0.0135835 0)
(9.34026 -0.0132035 0)
(9.34584 -0.0128345 0)
(9.35126 -0.0124765 0)
(9.35653 -0.0121292 0)
(9.36166 -0.0117924 0)
(9.36664 -0.011466 0)
(9.37148 -0.0111497 0)
(9.37619 -0.0108433 0)
(9.38078 -0.0105466 0)
(9.38523 -0.0102593 0)
(9.38957 -0.00998121 0)
(9.39378 -0.00971204 0)
(9.39788 -0.00945153 0)
(9.40188 -0.00919944 0)
(9.40576 -0.00895549 0)
(9.40954 -0.00871942 0)
(9.41323 -0.00849099 0)
(9.41681 -0.00826993 0)
(9.4203 -0.00805598 0)
(9.4237 -0.0078489 0)
(9.42702 -0.00764843 0)
(9.43025 -0.00745434 0)
(9.43339 -0.00726639 0)
(9.43646 -0.00708436 0)
(9.43945 -0.00690801 0)
(9.44237 -0.00673713 0)
(9.44521 -0.0065715 0)
(9.44798 -0.00641094 0)
(9.45069 -0.00625522 0)
(9.45333 -0.00610418 0)
(9.4559 -0.00595761 0)
(9.45842 -0.00581535 0)
(9.46087 -0.00567722 0)
(9.46327 -0.00554306 0)
(9.46561 -0.00541271 0)
(9.46789 -0.00528602 0)
(9.47012 -0.00516283 0)
(9.4723 -0.00504302 0)
(9.47443 -0.00492644 0)
(9.47651 -0.00481297 0)
(9.47854 -0.00470247 0)
(9.48053 -0.00459484 0)
(9.48247 -0.00448996 0)
(9.48436 -0.00438771 0)
(9.48622 -0.00428799 0)
(9.48803 -0.00419069 0)
(9.4898 -0.00409573 0)
(9.49153 -0.004003 0)
(9.49322 -0.00391242 0)
(9.49488 -0.0038239 0)
(9.49649 -0.00373735 0)
(9.49808 -0.00365269 0)
(9.49962 -0.00356985 0)
(9.50113 -0.00348876 0)
(9.50261 -0.00340933 0)
(9.50405 -0.0033315 0)
(9.50546 -0.0032552 0)
(9.50684 -0.00318037 0)
(9.50819 -0.00310695 0)
(9.50951 -0.00303487 0)
(9.5108 -0.00296407 0)
(9.51206 -0.00289451 0)
(9.51329 -0.00282612 0)
(9.51449 -0.00275885 0)
(9.51566 -0.00269265 0)
(9.51681 -0.00262748 0)
(9.51793 -0.00256327 0)
(9.51902 -0.00249999 0)
(9.52009 -0.00243759 0)
(9.52113 -0.00237603 0)
(9.52214 -0.00231526 0)
(9.52313 -0.00225524 0)
(9.5241 -0.00219594 0)
(9.52504 -0.0021373 0)
(9.52596 -0.0020793 0)
(9.52685 -0.00202189 0)
(9.52772 -0.00196504 0)
(9.52857 -0.00190871 0)
(9.52939 -0.00185287 0)
(9.53019 -0.00179749 0)
(9.53097 -0.00174253 0)
(9.53172 -0.00168796 0)
(9.53246 -0.00163375 0)
(9.53317 -0.00157986 0)
(9.53386 -0.00152628 0)
(9.53452 -0.00147297 0)
(9.53517 -0.0014199 0)
(9.53579 -0.00136704 0)
(9.5364 -0.00131437 0)
(9.53698 -0.00126186 0)
(9.53754 -0.00120949 0)
(9.53807 -0.00115724 0)
(9.53859 -0.00110507 0)
(9.53909 -0.00105297 0)
(9.53956 -0.00100092 0)
(9.54002 -0.000948886 0)
(9.54045 -0.000896859 0)
(9.54086 -0.000844816 0)
(9.54126 -0.000792738 0)
(9.54163 -0.00074061 0)
(9.54198 -0.000688414 0)
(9.5423 -0.000636137 0)
(9.54261 -0.000583763 0)
(9.5429 -0.000531283 0)
(9.54317 -0.000478684 0)
(9.54341 -0.000425962 0)
(9.54363 -0.000373108 0)
(9.54384 -0.000320124 0)
(9.54402 -0.00026701 0)
(9.54418 -0.000213773 0)
(9.54432 -0.000160425 0)
(9.54444 -0.000106988 0)
(9.54453 -5.34909e-05 0)
(9.54461 1.95076e-08 0)
(9.54466 5.34801e-05 0)
(9.54469 0.000106799 0)
(9.5447 0.000159845 0)
(9.5447 0.000212441 0)
(9.54466 0.000264285 0)
(9.54461 0.000315112 0)
(9.54453 0.000363806 0)
(9.54448 0.000411186 0)
(9.54425 0.000449762 0)
(9.95588 0.782298 0)
(9.89616 0.625082 0)
(9.80209 0.503503 0)
(9.70139 0.409171 0)
(9.60382 0.335235 0)
(9.51106 0.27837 0)
(9.42528 0.234738 0)
(9.34761 0.200774 0)
(9.27768 0.174004 0)
(9.21471 0.15268 0)
(9.15794 0.135472 0)
(9.10662 0.12139 0)
(9.06004 0.109715 0)
(9.01759 0.0999188 0)
(8.97873 0.0916056 0)
(8.943 0.0844778 0)
(8.91003 0.0783084 0)
(8.87948 0.072923 0)
(8.85108 0.0681852 0)
(8.82458 0.0639876 0)
(8.79978 0.0602449 0)
(8.7765 0.0568881 0)
(8.7546 0.0538613 0)
(8.73395 0.0511187 0)
(8.71441 0.0486224 0)
(8.69591 0.0463408 0)
(8.67834 0.0442475 0)
(8.66163 0.0423202 0)
(8.64572 0.0405397 0)
(8.63053 0.0388898 0)
(8.61601 0.0373566 0)
(8.60212 0.0359278 0)
(8.58881 0.034593 0)
(8.57604 0.033343 0)
(8.56378 0.0321697 0)
(8.55199 0.0310659 0)
(8.54064 0.0300255 0)
(8.5297 0.0290429 0)
(8.51916 0.0281132 0)
(8.50898 0.027232 0)
(8.49915 0.0263953 0)
(8.48965 0.0255997 0)
(8.48046 0.0248421 0)
(8.47157 0.0241196 0)
(8.46296 0.0234298 0)
(8.45461 0.0227703 0)
(8.44652 0.0221391 0)