# p  FACE_DATA 11666
# x y z  p
0.0596589 0.0485184 0.00125 -28.212
0.101562 0.0658665 0.00124988 -55.2616
0.134326 0.0763298 0.00125007 -65.1958
0.0156349 -0.00987769 0.00124999 -42.8846
0.00986925 -0.00870838 0.00875 -68.4676
0.015635 -0.00987629 0.00874999 -43.4327
0.0241069 -0.0106137 0.00124999 -31.1302
0.0176922 -0.0101479 0.00874997 -53.6053
0.0241084 -0.0106006 0.00875 -29.5362
0.00763978 -0.00781489 0.00875 -43.2396
0.00249986 0.007756 0.00124998 80.4165
0.00249976 0.00775583 0.00875 80.0108
0.0100541 0.0171346 0.00125 40.4172
0.0100541 0.0171346 0.00875 40.0742
0.0346937 0.0353866 0.00125 -6.01127
0.0346936 0.0353866 0.00875 -6.30543
0.0515461 0.0446016 0.00125 -27.0438
0.0515461 0.0446016 0.00875 -27.2434
0.0596591 0.0485182 0.00875 -28.3403
0.0739278 0.0550046 0.00124997 -39.3011
0.0739295 0.0549989 0.00875 -40.3083
0.0761697 0.0559647 0.00125002 -37.9419
0.0761716 0.055959 0.00875 -36.3774
0.0992795 0.0650143 0.00125006 -50.951
0.0992798 0.0650141 0.00875 -51.0741
0.124167 0.0734248 0.0012499 -71.0448
0.124168 0.0734247 0.00875 -71.2215
0.126 0.0739553 0.0012501 -71.9847
0.126001 0.0739544 0.00875 -72.159
0.00348497 -0.00540105 0.00375 -30.0525
0.00348498 -0.00540103 0.00125 -36.2568
0.00390561 0.00991142 0.00125001 73.5716
0.00390554 0.00991136 0.00375001 90.4433
0.0123385 0.0192647 0.00125 34.6107
0.0123385 0.0192647 0.00375 41.3484
0.0285313 0.0316828 0.00375 -7.64256
0.0285313 0.0316828 0.00125 -7.55096
0.0451676 0.0412112 0.00375 -15.7124
0.0618131 0.0495539 0.00374999 -29.9113
0.0596589 0.0485185 0.00375001 -28.1181
0.0783681 0.0569126 0.00125 -42.0264
0.0783681 0.0569126 0.00374999 -42.2452
0.0867428 0.0603561 0.00375001 -52.0846
0.101562 0.0658665 0.00375 -55.6241
0.103292 0.0664919 0.00124992 -59.5947
0.103292 0.066492 0.00374999 -60.17
0.111447 0.0692183 0.00375004 -59.6545
0.134325 0.0763333 0.00374992 -66.2063
0.136722 0.0770123 0.00124995 -61.3733
0.136721 0.0770159 0.00375005 -64.5541
0.145051 0.0793848 0.00375008 -68.2537
0.0156347 -0.00987844 0.00375 -54.1562
0.0136076 -0.00949862 0.00125 -46.2381
0.0136076 -0.00949862 0.00375 -58.5289
0.0176912 -0.0101618 0.00374995 -65.4189
0.0197529 -0.0103145 0.00125003 -43.1653
0.0197524 -0.0103197 0.00375004 -55.6286
0.0241068 -0.0106201 0.00374998 -40.3467
0.0217146 -0.0104413 0.00125002 -34.3353
0.0217143 -0.0104492 0.00375006 -45.219
0.0282211 -0.0108018 0.00375 -41.3802
0.0302103 -0.0108156 0.00375 -34.3394
0.0076396 -0.0078153 0.00375001 -50.0386
0.00547024 -0.00679722 0.00125 -67.6513
0.00143952 -0.00309457 0.00125002 14.6025
0.00249975 0.00775596 0.00374998 100.563
0.0058448 0.0124572 0.00375 73.6584
0.0079031 0.0148477 0.00375 66.0975
0.0100541 0.0171346 0.00375 48.8436
0.0141149 0.0208497 0.00374999 39.3795
0.0201896 0.0257898 0.00125 15.5198
0.0326383 0.0341513 0.00375 -1.55711
0.0346936 0.0353866 0.00375 -5.30513
0.0367466 0.0366202 0.00125 -9.83375
0.0367466 0.0366202 0.00375 -9.76063
0.0515461 0.0446016 0.00374999 -26.8063
0.0531428 0.0453811 0.00125 -29.3622
0.0639772 0.0505932 0.00375 -32.5337
0.0700375 0.053339 0.00125 -36.2942
0.0739264 0.0550072 0.00374994 -39.5804
0.0722766 0.0543039 0.00125 -37.4646
0.0761684 0.0559673 0.00375005 -39.3098
0.0805723 0.0578565 0.00125 -44.2903
0.0805723 0.0578565 0.00375 -44.7303
0.0930067 0.0626838 0.00125 -47.7419
0.0952866 0.0635344 0.00125 -49.8826
0.099279 0.0650161 0.00375 -51.9866
0.0969659 0.0641545 0.00125 -51.3754
0.105094 0.0670986 0.0012501 -61.0444
0.105092 0.0671034 0.0037499 -61.697
0.113773 0.0699913 0.00374998 -57.6895
0.120117 0.072101 0.00374998 -62.0119
0.120118 0.0720993 0.00125 -59.7366
0.124167 0.0734249 0.00375 -72.5042
0.12242 0.0728681 0.00125 -64.7315
0.125998 0.0739606 0.00374987 -72.3763
0.128392 0.0746367 0.00125 -60.5065
0.139046 0.0776819 0.00375 -68.2641
0.0156348 -0.00987736 0.00625 -54.4664
0.0136075 -0.00949862 0.00875 -46.671
0.0136075 -0.00949862 0.00625 -58.779
0.0176916 -0.0101555 0.00624994 -65.9563
0.0197534 -0.0103035 0.00875 -42.272
0.0197528 -0.0103122 0.00625 -54.9417
0.0241076 -0.0106114 0.00625002 -39.5647
0.0217161 -0.0104253 0.00874999 -35.3904
0.0217152 -0.0104383 0.00625004 -45.896
0.0282212 -0.0108018 0.00624999 -41.6329
0.0302103 -0.0108155 0.00625 -34.4503
0.00348497 -0.00540105 0.00625 -30.4851
0.00348498 -0.00540103 0.00875 -36.8344
0.00763959 -0.00781529 0.00625 -50.2917
0.00547019 -0.00679721 0.00875 -68.0778
0.00249971 0.0077559 0.00624999 100.169
0.00390549 0.00991128 0.00625 90.0964
0.00584477 0.0124572 0.00625 73.3746
0.00790308 0.0148476 0.00875 53.5236
0.0100541 0.0171346 0.00625001 48.605
0.0123385 0.0192647 0.00624999 41.1056
0.0141149 0.0208497 0.00625001 39.1021
0.0158688 0.0224099 0.00874999 26.4354
0.0182596 0.0243548 0.00874999 12.4387
0.0201895 0.0257898 0.00875 15.1298
0.0285313 0.0316828 0.00625 -7.8002
0.0285313 0.0316829 0.00875 -7.86568
0.0326383 0.0341513 0.00875 -2.34181
0.0346936 0.0353866 0.00625 -5.48344
0.0367466 0.0366202 0.00875 -10.1021
0.0367466 0.0366202 0.00625 -9.90334
0.0409383 0.038949 0.00625 -14.2014
0.0451676 0.0412112 0.00625 -15.8387
0.0451676 0.0412112 0.00875 -15.6234
0.0515461 0.0446016 0.00625 -26.9118
0.0531429 0.0453804 0.00875 -29.6329
0.0553392 0.0464351 0.00875 -23.413
0.0618131 0.0495539 0.00624999 -30.0152
0.059659 0.0485184 0.00625 -28.1878
0.0639771 0.0505932 0.00625 -32.6292
0.0739276 0.0550035 0.00624998 -40.1823
0.0722765 0.0543039 0.00875 -37.7918
0.0761697 0.0559636 0.00625003 -38.6095
0.0867429 0.060356 0.00625 -52.1048
0.0930069 0.0626832 0.00875001 -47.6589
0.0952867 0.0635344 0.00875 -50.0743
0.0992791 0.065016 0.00625 -52.0551
0.096966 0.0641543 0.00875 -51.6009
0.107436 0.0678759 0.00625005 -53.6165
0.111447 0.0692181 0.00624994 -60.0504
0.113773 0.0699911 0.00625004 -57.6636
0.120117 0.0721009 0.00625003 -62.0413
0.124167 0.0734248 0.00625009 -72.5918
0.122419 0.0728681 0.00875 -64.8662
0.125999 0.0739601 0.00624999 -72.4507
0.128392 0.074636 0.00875 -60.4193
0.128391 0.0746415 0.00624997 -63.1933
0.139047 0.0776819 0.00625 -68.6376
0.145051 0.0793845 0.00625001 -68.1884
0.00986926 -0.00870838 0.00124999 -68.1115
0.0076398 -0.00781489 0.00125 -42.8642
0.0176917 -0.0101574 0.00125007 -52.8322
0.000200385 0.00101878 0.00124999 85.1265
0.0265126 0.0304203 0.00125 -4.14289
0.0409383 0.038949 0.00125002 -13.6378
0.0430512 0.0400793 0.00124999 -13.4482
0.0844473 0.0594811 0.00125001 -54.9731
0.109733 0.0686517 0.00125 -56.6689
0.142658 0.0786991 0.00125 -69.2953
0.0264126 -0.0107599 0.00124996 -35.701
0.0264128 -0.0107599 0.00875 -36.4116
0.00030057 -0.000910135 0.00124996 50.8225
0.000300479 -0.00090986 0.00875 50.0296
0.00143944 -0.00309431 0.00875 13.8255
0.000200372 0.00101871 0.00875 84.4752
0.0245666 0.0290269 0.00125 6.69831
0.0220896 0.0271946 0.00125 14.2453
0.0245669 0.0290265 0.00875 6.43614
0.0220899 0.0271942 0.00875 13.8629
0.0265126 0.0304203 0.00875 -4.48397
0.0409384 0.0389488 0.00875 -13.8317
0.0430512 0.0400793 0.00875 -13.7016
0.0574973 0.0474804 0.00125 -26.8458
0.055339 0.0464357 0.00125 -23.3775
0.0574975 0.0474802 0.00875 -27.0884
0.082793 0.0588075 0.00124999 -47.5343
0.082793 0.0588075 0.00875 -47.6432
0.0844474 0.0594808 0.00875 -55.1147
0.107436 0.0678775 0.00124998 -51.7286
0.101562 0.0658665 0.00875 -55.6354
0.107439 0.067868 0.00875 -48.492
0.109734 0.0686517 0.00875 -57.9328
0.132483 0.0758129 0.00125 -65.0475
0.132483 0.0758129 0.00875 -65.401
0.134327 0.0763232 0.00875 -66.5247
0.140815 0.0781855 0.00125 -66.6239
0.140816 0.0781855 0.00875 -67.131
0.142658 0.0786984 0.00875 -69.5073
0.00986924 -0.00870838 0.00375 -83.4832
0.011654 -0.00912788 0.00125001 -65.2285
0.0116539 -0.00912788 0.00374999 -80.9003
0.000200379 0.00101875 0.00374999 118.437
0.0013868 0.00543825 0.00125 91.3499
0.000586819 0.00298345 0.00125 92.4789
0.000586809 0.0029834 0.00375 121.372
0.0158685 0.0224104 0.00124999 26.823
0.0182592 0.0243553 0.00125003 12.6986
0.0158681 0.0224108 0.00375001 31.8943
0.0182589 0.0243556 0.00374999 14.9368
0.0265126 0.0304203 0.00374999 -2.86173
0.0430512 0.0400793 0.00375 -13.6712
0.0409382 0.0389491 0.00375 -14.1111
0.0451676 0.0412112 0.00125 -15.392
0.0618131 0.0495539 0.00125 -29.9135
0.0700363 0.0533415 0.00375 -37.6306
0.0677828 0.0523723 0.00125 -44.5153
0.0677816 0.0523749 0.00374999 -43.1319
0.0844463 0.0594837 0.00375001 -54.3423
0.0867438 0.0603536 0.00125 -51.0484
0.109733 0.0686517 0.00375 -58.926
0.107435 0.0678823 0.00375006 -55.2732
0.111448 0.0692157 0.00125 -57.7231
0.117778 0.0713216 0.00125 -60.385
0.117778 0.0713233 0.00375003 -61.1674
0.142656 0.0787041 0.00374996 -69.8658
0.145053 0.0793798 0.00125 -65.5418
0.0264127 -0.0107599 0.00374998 -44.677
0.0282212 -0.0108018 0.00125 -33.7879
0.0302103 -0.0108155 0.00125 -28.349
0.00547002 -0.00679765 0.00374999 -74.1913
0.00143948 -0.00309443 0.00375002 35.797
0.000300522 -0.00090999 0.00374997 81.8976
0.00138673 0.00543826 0.00375 114.599
0.00584483 0.0124572 0.00125 60.4842
0.00790312 0.0148477 0.00125 53.8849
0.014115 0.0208496 0.00125 32.1413
0.0201895 0.0257898 0.00374999 18.24
0.0220894 0.0271949 0.00375001 16.8561
0.0245664 0.0290271 0.00375 9.0445
0.0305852 0.0329173 0.00375 -1.78261
0.0326383 0.0341513 0.00125 -2.05746
0.0305852 0.0329173 0.00125 -1.71158
0.0388237 0.0378181 0.00124998 -17.8277
0.0388236 0.0378182 0.00375 -18.0038
0.0472819 0.042342 0.00375 -18.1745
0.0493989 0.0434742 0.00125 -21.1561
0.0493989 0.0434743 0.00375001 -21.1158
0.0472819 0.042342 0.00125 -17.9312
0.053141 0.0453847 0.00374996 -29.0525
0.0553372 0.0464394 0.00375002 -24.8001
0.0574973 0.0474805 0.00374999 -26.6004
0.0639772 0.0505932 0.00125 -32.5877
0.0661609 0.0516418 0.00125 -36.456
0.0661609 0.0516419 0.00375 -36.1158
0.0722765 0.0543039 0.00374998 -37.932
0.082793 0.0588075 0.00375 -48.0402
0.0890204 0.0612055 0.00374999 -48.7366
0.0906999 0.0618265 0.00125 -48.8517
0.0906997 0.0618269 0.00375 -49.0569
0.0890204 0.0612055 0.00125 -48.5385
0.0930065 0.0626842 0.00375001 -48.9033
0.0952866 0.0635343 0.00374999 -50.7843
0.0969653 0.0641562 0.00375 -51.7424
0.113774 0.0699888 0.00125 -55.2204
0.116073 0.0707587 0.00125 -58.9959
0.116073 0.0707587 0.00375 -59.8389
0.12242 0.0728681 0.00375 -66.6296
0.128391 0.0746419 0.00375006 -63.22
0.132483 0.0758129 0.00375 -65.9477
0.130713 0.075309 0.00125 -65.5938
0.130714 0.075309 0.00375 -65.8088
0.140816 0.0781856 0.00375 -68.6114
0.139046 0.0776818 0.00125 -66.0341
0.147379 0.080025 0.00374988 -77.5401
0.149162 0.0804761 0.00125 -71.4034
0.149162 0.080476 0.00375 -72.5919
0.147379 0.0800251 0.00125 -77.421
0.0264128 -0.0107599 0.00625001 -44.9332
0.0282212 -0.0108017 0.00875 -34.5071
0.0302103 -0.0108155 0.00875 -28.6725
0.00986925 -0.00870838 0.00625 -83.6442
0.0116539 -0.00912788 0.00875 -65.6071
0.0116539 -0.00912788 0.00625 -81.0499
0.00547 -0.00679764 0.00625 -74.5089
0.00143945 -0.00309434 0.00625001 35.186
0.000300489 -0.000909893 0.00624999 81.2009
0.000200374 0.00101872 0.00625 117.801
0.00138678 0.00543818 0.00875 90.894
0.000586798 0.00298335 0.00875 91.9138
0.00138672 0.00543824 0.00625 114.152
0.000586801 0.00298336 0.00625 120.824
0.00390549 0.00991123 0.00875 73.1758
0.00584478 0.0124572 0.00875 60.1365
0.00790308 0.0148477 0.00624999 65.8144
0.0123384 0.0192647 0.00875 34.2364
0.0158684 0.0224104 0.00625 31.6386
0.0141149 0.0208496 0.00875 31.7424
0.0182593 0.0243552 0.00625 14.7988
0.0201895 0.0257898 0.00624999 18.0046
0.0220896 0.0271946 0.00625001 16.6302
0.0245666 0.0290269 0.00625 8.89545
0.0265127 0.0304203 0.00625 -3.04938
0.0305852 0.0329173 0.00625 -1.96348
0.0326383 0.0341513 0.00625 -1.72304
0.0305852 0.0329173 0.00875 -2.0305
0.0388238 0.0378178 0.00875 -18.1078
0.0388237 0.0378181 0.00625 -18.1385
0.0430512 0.0400793 0.00625 -13.8052
0.0472819 0.042342 0.00625 -18.3091
0.049399 0.0434743 0.00875 -21.3568
0.049399 0.0434742 0.00625 -21.2352
0.0472819 0.042342 0.00875 -18.1473
0.053141 0.0453844 0.00625 -29.1824
0.0553373 0.0464391 0.00625001 -24.8358
0.0574974 0.0474803 0.00625 -26.7221
0.0618132 0.0495539 0.00875 -30.0998
0.0639771 0.0505931 0.00875 -32.7605
0.0661609 0.0516419 0.00874999 -36.6402
0.066161 0.0516419 0.00625 -36.2153
0.0700363 0.0533413 0.00625001 -37.7202
0.0677828 0.052372 0.00875001 -44.7498
0.0677817 0.0523748 0.00624999 -43.233
0.0700375 0.0533386 0.00875 -36.4564
0.0722764 0.0543039 0.00625 -38.1097
0.0783681 0.0569126 0.00875 -42.6159
0.0783681 0.0569126 0.00625 -42.4155
0.0805723 0.0578565 0.00875 -44.7277
0.0805723 0.0578565 0.00625 -44.9199
0.082793 0.0588075 0.00625 -48.11
0.0844464 0.0594835 0.00624997 -54.4104
0.0867439 0.0603532 0.00875 -51.0818
0.0890205 0.0612055 0.00625 -48.8105
0.0907001 0.0618259 0.00874999 -49.083
0.0906999 0.0618264 0.00625 -49.1932
0.0890204 0.0612055 0.00875 -48.6883
0.0930067 0.0626838 0.00625 -48.8384
0.0952866 0.0635343 0.00625 -50.8672
0.0969653 0.0641562 0.00625 -51.8528
0.101562 0.0658665 0.00625 -55.8431
0.103292 0.0664918 0.00874999 -60.0444
0.103292 0.0664919 0.00625 -60.4436
0.105096 0.0670889 0.00875001 -62.903
0.105094 0.067097 0.00624998 -62.8409
0.109733 0.0686517 0.00625 -59.3988
0.111447 0.0692154 0.00875 -58.5367
0.113773 0.0699884 0.00875 -55.1224
0.116073 0.0707587 0.00875 -59.1662
0.116073 0.0707587 0.00625 -59.8981
0.117778 0.0713215 0.00875 -60.5896
0.117778 0.0713233 0.00624996 -61.2558
0.120118 0.0720992 0.00875 -59.7892
0.12242 0.0728681 0.00625 -66.6916
0.132483 0.0758129 0.00625 -66.1562
0.130713 0.075309 0.00875 -65.966
0.130713 0.0753091 0.00625 -66.0002
0.134326 0.0763288 0.00624998 -67.0562
0.136724 0.0770058 0.00875 -59.0642
0.136722 0.0770114 0.00625004 -63.3183
0.140816 0.0781855 0.00625 -68.875
0.139046 0.0776819 0.00875 -66.9571
0.142656 0.0787038 0.00625 -69.9797
0.145053 0.0793791 0.00875 -65.4018
0.14738 0.0800251 0.00625 -77.5926
0.149162 0.080476 0.00875 -71.5729
0.149162 0.0804761 0.00625 -72.6668
0.14738 0.080025 0.00875 -77.5677
0.0490523 -0.010642 0.00125001 -2.47641
0.049052 -0.010642 0.00874999 -4.43218
0.0490521 -0.010642 0.00375001 -10.7186
0.046909 -0.0106865 0.00374992 -9.93628
0.049052 -0.010642 0.00625001 -17.9413
0.0469091 -0.0106865 0.00875 -4.20733
0.0469091 -0.0106865 0.00624997 -12.193
0.551041 0.00119257 0 27.0513
0.559375 0.00119249 0 27.4473
0.567708 0.00119252 0 27.825
0.567708 0.0107194 0 28.3403
0.576042 0.00119259 0 28.1764
0.576041 0.0107218 0 28.6798
0.576021 0.0204946 0 29.0764
0.584375 0.00119258 0 28.5105
0.584374 0.0107217 0 29.0203
0.584355 0.0205525 0 29.3624
0.592709 0.00119253 0 28.8307
0.592708 0.0107159 0 29.3524
0.592705 0.0202704 0 29.6527
0.551041 0.00119257 0.01 27.0499
0.559375 0.0011925 0.01 27.4424
0.567708 0.00119252 0.01 27.8193
0.567708 0.0107193 0.01 28.3284
0.576042 0.0011926 0.01 28.1727
0.576041 0.0107217 0.01 28.6787
0.576024 0.020507 0.01 29.0635
0.584375 0.00119259 0.01 28.5091
0.584374 0.0107215 0.01 29.0256
0.584355 0.0205506 0.01 29.3988
0.592709 0.00119254 0.01 28.8284
0.592708 0.0107159 0.01 29.3504
0.592705 0.0202704 0.01 29.6065
0.551041 -0.00114394 0 26.8893
0.557292 -0.00114396 0 27.1845
0.559375 -0.00114396 0 27.2821
0.565625 -0.00114396 0 27.5647
0.567708 -0.00114396 0 27.657
0.573959 -0.00114412 0 27.9222
0.573955 0.0204681 0 28.8111
0.576041 -0.00114412 0 28.0088
0.582292 -0.00114412 0 28.2605
0.582273 0.0205724 0 29.3422
0.584375 -0.00114412 0 28.3434
0.590625 -0.00114413 0 28.5842
0.590744 0.0263698 0 29.5976
0.590616 0.0203182 0 29.5752
0.592708 -0.00114414 0 28.6634
0.592779 0.026369 0 29.8519
0.557292 -0.00114383 0.01 27.1811
0.551041 -0.0011438 0.01 26.8883
0.565625 -0.00114382 0.01 27.5597
0.559375 -0.00114383 0.01 27.2783
0.573959 -0.00114387 0.01 27.9179
0.567708 -0.00114382 0.01 27.6522
0.57395 0.0204816 0.01 28.8624
0.582292 -0.00114387 0.01 28.2579
0.576041 -0.00114387 0.01 28.0052
0.582274 0.0205703 0.01 29.3276
0.590625 -0.00114389 0.01 28.5817
0.584375 -0.00114387 0.01 28.3413
0.590616 0.0203179 0.01 29.5477
0.590748 0.0263839 0.01 29.7395
0.592708 -0.00114389 0.01 28.6608
0.592771 0.0263899 0.01 29.6484
0.576042 0.00833589 0 28.5679
0.582291 0.00833604 0 28.8221
0.582291 0.00119259 0 28.4282
0.584375 0.00833572 0 28.9071
0.590625 0.00833435 0 29.1553
0.590625 0.00119254 0 28.7519
0.592708 0.00833392 0 29.2367
0.582291 0.0011926 0.01 28.4262
0.582291 0.00833598 0.01 28.8237
0.576042 0.00833583 0.01 28.565
0.590625 0.00119255 0.01 28.7501
0.590625 0.00833432 0.01 29.1553
0.584375 0.00833567 0.01 28.9091
0.592708 0.00833391 0.01 29.2343
0.573942 0.0250296 0 29.1435
0.571869 0.0248846 0 28.8504
0.578125 -0.00114366 0 28.0937
0.578125 -0.00309124 0 27.9333
0.576041 -0.00309272 0 27.8499
0.582292 -0.00309272 0 28.0982
0.580209 -0.00309124 0 28.0152
0.580209 -0.00114366 0 28.1771
0.578093 0.025177 0 29.1614
0.576016 0.0251248 0 28.9508
0.582275 0.0254495 0 29.4673
0.58016 0.0253227 0 28.9516
0.586458 -0.00114367 0 28.4246
0.586458 -0.00309125 0 28.2598
0.584375 -0.00309273 0 28.1803
0.590625 -0.00309273 0 28.4172
0.588542 -0.00309125 0 28.3378
0.588542 -0.00114368 0 28.5043
0.586364 0.0254581 0 29.2748
0.584312 0.0254866 0 29.0533
0.590633 0.0248887 0 29.6375
0.588415 0.0252343 0 29.7879
0.588893 0.0264646 0 29.8187
0.594791 -0.00114369 0 28.7409
0.594791 -0.00309125 0 28.5711
0.592708 -0.00309273 0 28.4954
0.596875 -0.00309125 0 28.6453
0.596875 -0.00114369 0 28.8168
0.592726 0.0247326 0 29.8022
0.551041 0.00833624 0 27.4099
0.557291 0.00833409 0 27.7196
0.557292 0.00119249 0 27.3491
0.559375 0.00833412 0 27.8258
0.565625 0.00833479 0 28.1255
0.565625 0.00119251 0 27.733
0.567709 0.00833504 0 28.2194
0.573958 0.00833581 0 28.4833
0.573958 0.00119259 0 28.0905
0.567704 0.0179395 0 28.671
0.573952 0.0179734 0 28.8443
0.573958 0.0107211 0 28.5971
0.576042 0.0035717 0 28.3178
0.578125 0.00357171 0 28.403
0.578125 0.00119257 0 28.2614
0.576035 0.017984 0 28.9491
0.582284 0.0180013 0 29.2091
0.582291 0.0107224 0 28.9339
0.576024 0.0229785 0 29.0543
0.578099 0.0230199 0 28.9676
0.578119 0.0205171 0 28.9668
0.584375 0.00357169 0 28.6543
0.586458 0.00357164 0 28.7367
0.586459 0.00119255 0 28.592
0.584367 0.0179915 0 29.3041
0.590621 0.0178984 0 29.5474
0.590625 0.0107171 0 29.2701
0.584345 0.0231664 0 29.2417
0.586414 0.0230751 0 29.5417
0.586437 0.0204932 0 29.4644
0.592708 0.0035715 0 28.9784
0.594791 0.00357147 0 29.0573
0.594792 0.0011925 0 28.9085
0.592707 0.0178763 0 29.6315
0.592696 0.0226206 0 29.7828
0.557292 0.0011925 0.01 27.3448
0.557291 0.00833407 0.01 27.708
0.551041 0.00833618 0.01 27.4045
0.565625 0.00119251 0.01 27.7271
0.565625 0.00833475 0.01 28.1149
0.559375 0.0083341 0.01 27.8137
0.573958 0.00119259 0.01 28.0861
0.573958 0.00833575 0.01 28.4785
0.567709 0.008335 0.01 28.2097
0.573958 0.010721 0.01 28.5933
0.573952 0.0179726 0.01 28.8474
0.567704 0.0179389 0.01 28.6451
0.578125 0.00119258 0.01 28.2583
0.578125 0.0035717 0.01 28.4003
0.576042 0.00357169 0.01 28.3141
0.582291 0.0107223 0.01 28.939
0.582284 0.0180004 0.01 29.2174
0.576035 0.0179831 0.01 28.9495
0.578114 0.0205298 0.01 29.0503
0.578102 0.0230407 0.01 29.0521
0.576024 0.022987 0.01 29.1408
0.586459 0.00119256 0.01 28.5908
0.586458 0.00357164 0.01 28.7362
0.584375 0.00357168 0.01 28.6536
0.590625 0.0107171 0.01 29.2723
0.590621 0.0178981 0.01 29.5435
0.584367 0.0179906 0.01 29.3168
0.586437 0.0204916 0.01 29.5451
0.586411 0.0231199 0.01 29.6922
0.584351 0.0231886 0.01 29.3104
0.594792 0.00119251 0.01 28.9054
0.594791 0.00357147 0.01 29.0539
0.592708 0.0035715 0.01 28.9762
0.592707 0.0178762 0.01 29.6104
0.5927 0.0226377 0.01 29.6875
0.553125 -0.00114371 0 26.9885
0.553125 -0.00309131 0 26.8444
0.551041 -0.0030926 0 26.7475
0.557292 -0.00309261 0 27.0374
0.555209 -0.00309131 0 26.9403
0.555209 -0.00114372 0 27.0866
0.561458 -0.00114373 0 27.3778
0.561458 -0.00309131 0 27.2269
0.559375 -0.00309261 0 27.1338
0.565625 -0.00309261 0 27.4112
0.563542 -0.00309131 0 27.3185
0.563542 -0.00114372 0 27.4717
0.569791 -0.00114372 0 27.7469
0.569791 -0.00309131 0 27.5904
0.567708 -0.00309261 0 27.5026
0.573959 -0.00309273 0 27.7639
0.571875 -0.00309125 0 27.6768
0.571875 -0.00114367 0 27.8347
0.571856 0.020444 0 28.9829
0.571871 0.022848 0 28.9702
0.573942 0.0229232 0 28.9704
0.580191 0.0205658 0 29.1492
0.580192 0.0231514 0 28.9809
0.582254 0.0231967 0 29.5855
0.588524 0.0204022 0 29.5606
0.588506 0.0229095 0 29.7471
0.590606 0.0227487 0 29.6692
0.555209 -0.00114359 0.01 27.0844
0.555209 -0.00309047 0.01 26.9394
0.557292 -0.00309177 0.01 27.0348
0.551041 -0.00309176 0.01 26.7467
0.553125 -0.00309047 0.01 26.8441
0.553125 -0.00114358 0.01 26.9871
0.563542 -0.00114359 0.01 27.4673
0.563542 -0.00309047 0.01 27.3156
0.565625 -0.00309177 0.01 27.407
0.559375 -0.00309177 0.01 27.1308
0.561458 -0.00309047 0.01 27.2245
0.561458 -0.00114359 0.01 27.374
0.571875 -0.00114353 0.01 27.8306
0.571875 -0.00309041 0.01 27.6736
0.573959 -0.00309178 0.01 27.76
0.567708 -0.00309177 0.01 27.4984
0.569791 -0.00309047 0.01 27.5873
0.569791 -0.00114358 0.01 27.7426
0.573941 0.0229322 0.01 28.9162
0.571866 0.0228715 0.01 28.9305
0.57186 0.020457 0.01 28.943
0.571866 0.0249236 0.01 28.9096
0.573942 0.0250429 0.01 28.8273
0.580209 -0.00114352 0.01 28.1747
0.580209 -0.00309041 0.01 28.0131
0.582292 -0.00309178 0.01 28.0954
0.576041 -0.00309178 0.01 27.8466
0.578125 -0.00309041 0.01 27.9312
0.578125 -0.00114352 0.01 28.091
0.582258 0.0231803 0.01 29.4379
0.580188 0.0231388 0.01 29.0516
0.580191 0.0205637 0.01 29.1825
0.580165 0.0253423 0.01 29.0878
0.582266 0.0254528 0.01 29.1734
0.576014 0.025138 0.01 29.2783
0.578092 0.0252146 0.01 29.1853
0.588542 -0.00114354 0.01 28.5027
0.588542 -0.00309041 0.01 28.3363
0.590625 -0.00309179 0.01 28.4144
0.584375 -0.00309178 0.01 28.1779
0.586458 -0.00309041 0.01 28.2584
0.586458 -0.00114353 0.01 28.4231
0.590606 0.0227486 0.01 29.5922
0.5885 0.02293 0.01 29.8235
0.588524 0.0204013 0.01 29.5982
0.588891 0.0265043 0.01 29.6927
0.588419 0.0252804 0.01 29.8242
0.590628 0.024901 0.01 29.4698
0.584305 0.0255289 0.01 29.4182
0.586363 0.0255338 0.01 29.364
0.596875 -0.00114355 0.01 28.8133
0.596875 -0.00309041 0.01 28.6424
0.592708 -0.00309179 0.01 28.4927
0.594791 -0.00309041 0.01 28.5689
0.594791 -0.00114354 0.01 28.7382
0.592723 0.0247675 0.01 29.6776
0.578125 0.00833593 0 28.6523
0.578125 0.00595326 0 28.5359
0.576042 0.00595322 0 28.4511
0.582291 0.00595326 0 28.7045
0.580209 0.00595328 0 28.6203
0.580208 0.00833619 0 28.737
0.580208 0.00119257 0 28.3451
0.580209 0.00357172 0 28.4874
0.582291 0.00357171 0 28.5712
0.586458 0.00833551 0 28.9908
0.586458 0.00595306 0 28.8709
0.584375 0.00595319 0 28.7882
0.590625 0.00595272 0 29.0339
0.588541 0.00595289 0 28.9528
0.588541 0.00833488 0 29.0734
0.588541 0.00119254 0 28.6724
0.588541 0.00357159 0 28.8181
0.590625 0.00357154 0 28.8987
0.594791 0.00833366 0 29.3178
0.594791 0.0059525 0 29.194
0.592708 0.00595259 0 29.1143
0.596875 0.00595246 0 29.2729
0.596875 0.00833354 0 29.3986
0.596875 0.00119249 0 28.9852
0.596875 0.00357145 0 29.1353
0.582291 0.0035717 0.01 28.57
0.580208 0.0035717 0.01 28.4856
0.580208 0.00119258 0.01 28.3428
0.580208 0.00833613 0.01 28.7376
0.580209 0.00595326 0.01 28.6195
0.582291 0.00595323 0.01 28.7046
0.576042 0.0059532 0.01 28.4476
0.578125 0.00595324 0.01 28.5338
0.578125 0.00833587 0.01 28.6513
0.590625 0.00357154 0.01 28.8974
0.588541 0.00357159 0.01 28.8174
0.588541 0.00119255 0.01 28.671
0.588541 0.00833484 0.01 29.075
0.588541 0.00595288 0.01 28.9534
0.590625 0.00595271 0.01 29.0336
0.584375 0.00595316 0.01 28.7889
0.586458 0.00595304 0.01 28.8718
0.586458 0.00833546 0.01 28.9929
0.596875 0.00357146 0.01 29.1306
0.596875 0.0011925 0.01 28.981
0.596875 0.00833354 0.01 29.3913
0.596875 0.00595246 0.01 29.2677
0.592708 0.00595258 0.01 29.1125
0.594791 0.0059525 0.01 29.1906
0.594791 0.00833365 0.01 29.3128
0.101093 -0.00919501 0 -3.58961
0.109385 -0.00876016 0 -0.439766
0.117693 -0.00822008 0 1.64553
0.125998 -0.00774877 0 2.42445
0.134271 -0.00743849 0 2.8046
0.142702 -0.00798999 0 4.33972
0.151032 -0.00777377 0 4.74681
0.15934 -0.00740347 0 5.37179
0.16766 -0.00718291 0 5.54548
0.176018 -0.0076363 0 6.38607
0.184371 -0.00773988 0 7.06382
0.192684 -0.00761805 0 7.58201
0.201019 -0.00747914 0 7.95146
0.209366 -0.00775086 0 8.24186
0.217709 -0.00781607 0 9.0037
0.226037 -0.00774777 0 9.51479
0.234365 -0.00767837 0 10.0489
0.242699 -0.00770513 0 10.5086
0.243053 0.000406878 0 11.5239
0.251052 0.000560668 0 10.9654
0.1011 -0.00917048 0.01 -2.80826
0.109395 -0.00873816 0.01 0.404597
0.117702 -0.00820226 0.01 2.56315
0.126007 -0.00773453 0.01 3.27545
0.134278 -0.00743684 0.01 3.72615
0.142732 -0.00800059 0.01 4.40606
0.151044 -0.00775151 0.01 4.95247
0.159347 -0.00741766 0.01 5.48043
0.167674 -0.00718652 0.01 5.86053
0.176018 -0.00763619 0.01 6.48124
0.184371 -0.00773948 0.01 7.24022
0.19269 -0.00760616 0.01 7.7257
0.201025 -0.00749327 0.01 8.13202
0.209366 -0.00775008 0.01 8.52209
0.217709 -0.00781477 0.01 9.06367
0.226037 -0.0077472 0.01 9.47079
0.234366 -0.0076789 0.01 9.93015
0.242699 -0.00770661 0.01 10.3619
0.243052 0.000433816 0.01 10.6574
0.251056 0.000558977 0.01 11.946
0.0490424 -0.0108272 0 -2.47641
0.0508621 -0.0108253 0 1.19734
0.0991799 -0.00934788 0 -5.8583
0.107352 -0.00884906 0 -1.26855
0.115657 -0.008354 0 0.116035
0.123959 -0.00786462 0 1.24989
0.132264 -0.00745458 0 2.02689
0.140649 -0.00797115 0 3.48036
0.148968 -0.00785052 0 4.687
0.157287 -0.00749534 0 5.07347
0.165587 -0.00720717 0 5.9672
0.173912 -0.00744952 0 6.45084
0.182286 -0.00776731 0 6.92309
0.190609 -0.00762927 0 7.40694
0.198946 -0.0075188 0 7.94182
0.207644 -0.00210182 0 7.87486
0.207267 -0.00765824 0 8.30555
0.209519 -0.00221416 0 7.24941
0.215651 -0.00194939 0 9.29642
0.215621 -0.00782621 0 8.98514
0.217738 -0.00183307 0 9.01944
0.22395 -0.00146597 0 9.25744
0.22395 -0.00776587 0 9.40117
0.226043 -0.00134317 0 9.43709
0.232247 -0.000976902 0 10.0524
0.232279 -0.00769406 0 9.91747
0.234318 -0.000808545 0 10.0777
0.240509 -0.00051347 0 10.4638
0.24061 -0.0076827 0 10.4293
0.242594 -0.000824798 0 11.7638
0.248967 -0.00125271 0 10.5866
0.248953 -0.00770848 0 10.6015
0.249009 0.000444598 0 10.9824
0.257303 0.000919451 0 11.4819
0.0490354 -0.0108178 0.01 -4.43218
0.050926 -0.0110853 0.01 0.301441
0.0991641 -0.00931944 0.01 -8.12757
0.107341 -0.00882798 0.01 -1.09099
0.115645 -0.00833542 0.01 0.505659
0.123947 -0.00784961 0.01 1.55894
0.132255 -0.00745328 0.01 2.34896
0.140646 -0.00798151 0.01 3.34059
0.148952 -0.0078277 0.01 4.44127
0.157265 -0.00751084 0.01 5.14006
0.165587 -0.00720733 0.01 5.64973
0.173903 -0.00742945 0.01 6.68993
0.182286 -0.00776661 0.01 6.98641
0.190609 -0.00763015 0.01 7.46682
0.198936 -0.00751944 0.01 7.94538
0.207267 -0.00765835 0.01 8.54911
0.207643 -0.00206472 0.01 8.83793
0.215622 -0.00782484 0.01 9.01329
0.215652 -0.00193307 0.01 10.1233
0.209519 -0.00217962 0.01 7.53945
0.22395 -0.00776516 0.01 9.36034
0.223954 -0.00146724 0.01 10.0699
0.217737 -0.00182164 0.01 8.50423
0.232279 -0.00769441 0.01 9.81367
0.23225 -0.000975793 0.01 10.6911
0.226039 -0.00134427 0.01 8.75505
0.24061 -0.0076837 0.01 10.2715
0.24051 -0.00050965 0.01 10.7245
0.234323 -0.000824955 0.01 9.14982
0.248953 -0.00770863 0.01 10.5597
0.248967 -0.00127208 0.01 10.6669
0.242587 -0.000801247 0.01 11.1341
0.249004 0.000443278 0.01 10.5332
0.257297 0.000937908 0.01 10.7271
0.251039 -0.00768908 0 10.7521
0.259353 -0.0076036 0 12.2358
0.259354 0.00104857 0 11.2773
0.267648 0.00152319 0 11.5261
0.275901 0.00156015 0 12.2384
0.284378 0.00113572 0 12.1123
0.292684 0.00143044 0 12.6129
0.301005 0.00169748 0 13.0356
0.309343 0.00131469 0 13.3308
0.317702 0.00129626 0 13.9976
0.326025 0.0014339 0 14.2965
0.33435 0.00150064 0 14.6695
0.342703 0.00124079 0 14.9192
0.351037 0.00125809 0 15.7714
0.359365 0.00131653 0 16.3029
0.367699 0.00126603 0 16.7324
0.36806 0.00983151 0 17.2899
0.37604 0.0012077 0 17.046
0.376061 0.0100133 0 17.1428
0.384372 0.00123079 0 17.5364
0.38435 0.0106087 0 17.5754
0.392704 0.00124091 0 18.0285
0.392636 0.0110897 0 17.8469
0.40104 0.00120163 0 18.4452
0.401054 0.0105018 0 17.8557
0.409374 0.00120106 0 18.9662
0.409368 0.0107882 0 18.9863
0.417707 0.00121028 0 19.4859
0.417675 0.0111174 0 19.5818
0.42604 0.00120297 0 19.9846
0.425975 0.011015 0 20.7601
0.434375 0.00119364 0 20.466
0.434364 0.0107562 0 20.8187
0.442708 0.00119964 0 20.9728
0.442687 0.0109001 0 21.2022
0.451041 0.00121353 0 21.4748
0.451017 0.0110045 0 21.72
0.459374 0.0012282 0 21.9815
0.459371 0.0107585 0 22.0652
0.467707 0.00124459 0 22.521
0.467704 0.0107775 0 22.8155
0.476041 0.00121869 0 22.9889
0.476032 0.0108386 0 23.3222
0.484375 0.00119596 0 23.3903
0.484364 0.010829 0 23.7992
0.492708 0.00119304 0 23.8506
0.492707 0.0107364 0 24.1374
0.492737 0.0195073 0 24.1853
0.501042 0.00119307 0 24.3545
0.501039 0.0107518 0 24.7191
0.501021 0.020069 0 24.9542
0.509375 0.00119327 0 24.8461
0.509371 0.0107689 0 25.218
0.509317 0.0205648 0 25.2027
0.517708 0.00119281 0 25.3155
0.517706 0.0107338 0 25.6799
0.517704 0.0201406 0 25.5031
0.526041 0.00119257 0 25.7744
0.526041 0.0107215 0 26.1779
0.526044 0.0201611 0 26.442
0.534375 0.00119267 0 26.2199
0.534374 0.0107304 0 26.6593
0.534357 0.0204546 0 26.939
0.542708 0.00119272 0 26.6444
0.542707 0.0107359 0 27.0987
0.542681 0.020781 0 27.3732
0.551041 0.0107221 0 27.5056
0.551013 0.020336 0 27.8283
0.559375 0.0107163 0 27.9406
0.559365 0.0202704 0 28.4047
0.567699 0.0204213 0 28.7657
0.251039 -0.00768915 0.01 10.7407
0.259353 -0.00760366 0.01 12.24
0.259362 0.00105841 0.01 12.1126
0.267646 0.00156159 0.01 12.2222
0.275918 0.00155904 0.01 12.9014
0.284378 0.001143 0.01 12.4241
0.292689 0.00143669 0.01 12.7692
0.301006 0.00169893 0.01 13.0961
0.309348 0.00133215 0.01 13.2121
0.317702 0.00129567 0.01 14.0402
0.326025 0.00143218 0.01 14.3651
0.33435 0.00149862 0.01 14.7635
0.342704 0.00124073 0.01 14.9043
0.351037 0.00125771 0.01 15.7023
0.359365 0.00131575 0.01 16.2146
0.3677 0.00126553 0.01 16.6748
0.368058 0.00986982 0.01 17.0333
0.37604 0.00120756 0.01 17.0655
0.376066 0.0100695 0.01 17.8597
0.384372 0.00123045 0.01 17.5522
0.384355 0.010609 0.01 18.127
0.392704 0.00124049 0.01 18.0298
0.392627 0.0111439 0.01 18.3827
0.401041 0.00120159 0.01 18.4437
0.401061 0.0105192 0.01 18.145
0.409374 0.00120091 0.01 18.9774