# p  FACE_DATA 11666
# x y z  p
0.0596589 0.0485184 0.00125 -1.48826
0.101562 0.0658665 0.00124988 -31.2663
0.134326 0.0763298 0.00125007 -43.2999
0.0156349 -0.00987769 0.00124999 -98.4934
0.00986925 -0.00870838 0.00875 -145.112
0.015635 -0.00987629 0.00874999 -99.4125
0.0241069 -0.0106137 0.00124999 -76.1478
0.0176922 -0.0101479 0.00874997 -109.227
0.0241084 -0.0106006 0.00875 -74.2742
0.00763978 -0.00781489 0.00875 -117.054
0.00249986 0.007756 0.00124998 96.2163
0.00249976 0.00775583 0.00875 95.1925
0.0100541 0.0171346 0.00125 70.63
0.0100541 0.0171346 0.00875 70.0815
0.0346937 0.0353866 0.00125 23.0761
0.0346936 0.0353866 0.00875 22.5243
0.0515461 0.0446016 0.00125 1.51944
0.0515461 0.0446016 0.00875 1.11155
0.0596591 0.0485182 0.00875 -1.79886
0.0739278 0.0550046 0.00124997 -13.5177
0.0739295 0.0549989 0.00875 -14.4352
0.0761697 0.0559647 0.00125002 -12.8992
0.0761716 0.055959 0.00875 -11.8196
0.0992795 0.0650143 0.00125006 -27.4053
0.0992798 0.0650141 0.00875 -27.585
0.124167 0.0734248 0.0012499 -47.0706
0.124168 0.0734247 0.00875 -47.2765
0.126 0.0739553 0.0012501 -48.0761
0.126001 0.0739544 0.00875 -48.2935
0.00348497 -0.00540105 0.00375 -158.217
0.00348498 -0.00540103 0.00125 -142.718
0.00390561 0.00991142 0.00125001 94.4896
0.00390554 0.00991136 0.00375001 113.441
0.0123385 0.0192647 0.00125 64.8021
0.0123385 0.0192647 0.00375 75.7962
0.0285313 0.0316828 0.00375 28.6835
0.0285313 0.0316828 0.00125 25.3513
0.0451676 0.0412112 0.00375 14.3057
0.0618131 0.0495539 0.00374999 -1.97322
0.0596589 0.0485185 0.00375001 -0.058195
0.0783681 0.0569126 0.00125 -16.5297
0.0783681 0.0569126 0.00374999 -15.7436
0.0867428 0.0603561 0.00375001 -25.5006
0.101562 0.0658665 0.00375 -30.6423
0.103292 0.0664919 0.00124992 -35.0878
0.103292 0.066492 0.00374999 -34.5737
0.111447 0.0692183 0.00375004 -35.4642
0.134325 0.0763333 0.00374992 -43.6154
0.136722 0.0770123 0.00124995 -40.4066
0.136721 0.0770159 0.00375005 -42.4896
0.145051 0.0793848 0.00375008 -46.5017
0.0156347 -0.00987844 0.00375 -125.339
0.0136076 -0.00949862 0.00125 -107.18
0.0136076 -0.00949862 0.00375 -138.498
0.0176912 -0.0101618 0.00374995 -132.815
0.0197529 -0.0103145 0.00125003 -93.5595
0.0197524 -0.0103197 0.00375004 -117.099
0.0241068 -0.0106201 0.00374998 -93.1405
0.0217146 -0.0104413 0.00125002 -81.3812
0.0217143 -0.0104492 0.00375006 -102.351
0.0282211 -0.0108018 0.00375 -88.6662
0.0302103 -0.0108156 0.00375 -79.2803
0.0076396 -0.0078153 0.00375001 -141.802
0.00547024 -0.00679722 0.00125 -166.819
0.00143952 -0.00309457 0.00125002 -92.7509
0.00249975 0.00775596 0.00374998 118.04
0.0058448 0.0124572 0.00375 102.213
0.0079031 0.0148477 0.00375 94.846
0.0100541 0.0171346 0.00375 82.9859
0.0141149 0.0208497 0.00374999 72.6049
0.0201896 0.0257898 0.00125 46.0856
0.0326383 0.0341513 0.00375 30.6099
0.0346936 0.0353866 0.00375 26.8831
0.0367466 0.0366202 0.00125 19.6586
0.0367466 0.0366202 0.00375 22.3962
0.0515461 0.0446016 0.00374999 3.46725
0.0531428 0.0453811 0.00125 -0.761814
0.0639772 0.0505932 0.00375 -4.65456
0.0700375 0.053339 0.00125 -10.5242
0.0739264 0.0550072 0.00374994 -12.5828
0.0722766 0.0543039 0.00125 -11.732
0.0761684 0.0559673 0.00375005 -12.9392
0.0805723 0.0578565 0.00125 -18.8444
0.0805723 0.0578565 0.00375 -18.2363
0.0930067 0.0626838 0.00125 -23.8204
0.0952866 0.0635344 0.00125 -25.8258
0.099279 0.0650161 0.00375 -27.4249
0.0969659 0.0641545 0.00125 -27.3203
0.105094 0.0670986 0.0012501 -36.525
0.105092 0.0671034 0.0037499 -36.1271
0.113773 0.0699913 0.00374998 -34.2288
0.120117 0.072101 0.00374998 -38.6083
0.120118 0.0720993 0.00125 -37.3914
0.124167 0.0734249 0.00375 -47.7253
0.12242 0.0728681 0.00125 -41.6818
0.125998 0.0739606 0.00374987 -47.9888
0.128392 0.0746367 0.00125 -38.9856
0.139046 0.0776819 0.00375 -45.7687
0.0156348 -0.00987736 0.00625 -125.798
0.0136075 -0.00949862 0.00875 -108.007
0.0136075 -0.00949862 0.00625 -138.968
0.0176916 -0.0101555 0.00624994 -133.484
0.0197534 -0.0103035 0.00875 -92.573
0.0197528 -0.0103122 0.00625 -116.255
0.0241076 -0.0106114 0.00625002 -92.3584
0.0217161 -0.0104253 0.00874999 -82.8315
0.0217152 -0.0104383 0.00625004 -103.158
0.0282212 -0.0108018 0.00624999 -88.9269
0.0302103 -0.0108155 0.00625 -79.4101
0.00348497 -0.00540105 0.00625 -159.33
0.00348498 -0.00540103 0.00875 -144.503
0.00763959 -0.00781529 0.00625 -142.42
0.00547019 -0.00679721 0.00875 -168.391
0.00249971 0.0077559 0.00624999 117.145
0.00390549 0.00991128 0.00625 112.744
0.00584477 0.0124572 0.00625 101.662
0.00790308 0.0148476 0.00875 79.4625
0.0100541 0.0171346 0.00625001 82.5547
0.0123385 0.0192647 0.00624999 75.3604
0.0141149 0.0208497 0.00625001 72.1229
0.0158688 0.0224099 0.00874999 56.1059
0.0182596 0.0243548 0.00874999 45.4512
0.0201895 0.0257898 0.00875 45.4427
0.0285313 0.0316828 0.00625 28.3576
0.0285313 0.0316829 0.00875 24.7979
0.0326383 0.0341513 0.00875 26.3709
0.0346936 0.0353866 0.00625 26.5522
0.0367466 0.0366202 0.00875 19.1484
0.0367466 0.0366202 0.00625 22.1098
0.0409383 0.038949 0.00625 16.9393
0.0451676 0.0412112 0.00625 14.0453
0.0451676 0.0412112 0.00875 11.9348
0.0515461 0.0446016 0.00625 3.24614
0.0531429 0.0453804 0.00875 -1.2087
0.0553392 0.0464351 0.00875 3.05046
0.0618131 0.0495539 0.00624999 -2.15761
0.059659 0.0485184 0.00625 -0.216424
0.0639771 0.0505932 0.00625 -4.8216
0.0739276 0.0550035 0.00624998 -13.1294
0.0722765 0.0543039 0.00875 -12.1153
0.0761697 0.0559636 0.00625003 -12.43
0.0867429 0.060356 0.00625 -25.5581
0.0930069 0.0626832 0.00875001 -23.8391
0.0952867 0.0635344 0.00875 -26.058
0.0992791 0.065016 0.00625 -27.5171
0.096966 0.0641543 0.00875 -27.5819
0.107436 0.0678759 0.00625005 -30.0768
0.111447 0.0692181 0.00624994 -35.8135
0.113773 0.0699911 0.00625004 -34.2425
0.120117 0.0721009 0.00625003 -38.6476
0.124167 0.0734248 0.00625009 -47.8318
0.122419 0.0728681 0.00875 -41.8286
0.125999 0.0739601 0.00624999 -48.0797
0.128392 0.074636 0.00875 -38.938
0.128391 0.0746415 0.00624997 -40.7348
0.139047 0.0776819 0.00625 -46.0145
0.145051 0.0793845 0.00625001 -46.4526
0.00986926 -0.00870838 0.00124999 -144.004
0.0076398 -0.00781489 0.00125 -115.958
0.0176917 -0.0101574 0.00125007 -108.039
0.000200385 0.00101878 0.00124999 45.8023
0.0265126 0.0304203 0.00125 28.68
0.0409383 0.038949 0.00125002 15.1668
0.0430512 0.0400793 0.00124999 14.4283
0.0844473 0.0594811 0.00125001 -28.0881
0.109733 0.0686517 0.00125 -33.3614
0.142658 0.0786991 0.00125 -47.3557
0.0264126 -0.0107599 0.00124996 -79.7146
0.0264128 -0.0107599 0.00875 -80.6247
0.00030057 -0.000910135 0.00124996 -45.1978
0.000300479 -0.00090986 0.00875 -47.6871
0.00143944 -0.00309431 0.00875 -94.9493
0.000200372 0.00101871 0.00875 43.9942
0.0245666 0.0290269 0.00125 37.349
0.0220896 0.0271946 0.00125 43.9875
0.0245669 0.0290265 0.00875 36.8001
0.0220899 0.0271942 0.00875 43.3517
0.0265126 0.0304203 0.00875 28.0835
0.0409384 0.0389488 0.00875 14.7386
0.0430512 0.0400793 0.00875 13.9398
0.0574973 0.0474804 0.00125 0.124539
0.055339 0.0464357 0.00125 3.30496
0.0574975 0.0474802 0.00875 -0.299478
0.082793 0.0588075 0.00124999 -21.9047
0.082793 0.0588075 0.00875 -22.0978
0.0844474 0.0594808 0.00875 -28.3023
0.107436 0.0678775 0.00124998 -29.3157
0.101562 0.0658665 0.00875 -31.6412
0.107439 0.067868 0.00875 -26.8216
0.109734 0.0686517 0.00875 -34.3968
0.132483 0.0758129 0.00125 -43.067
0.132483 0.0758129 0.00875 -43.4297
0.134327 0.0763232 0.00875 -44.4226
0.140815 0.0781855 0.00125 -45.0684
0.140816 0.0781855 0.00875 -45.5924
0.142658 0.0786984 0.00875 -47.6248
0.00986924 -0.00870838 0.00375 -180.388
0.011654 -0.00912788 0.00125001 -136.833
0.0116539 -0.00912788 0.00374999 -172.672
0.000200379 0.00101875 0.00374999 86.4186
0.0013868 0.00543825 0.00125 92.9573
0.000586819 0.00298345 0.00125 70.9054
0.000586809 0.0029834 0.00375 107.583
0.0158685 0.0224104 0.00124999 56.7114
0.0182592 0.0243553 0.00125003 45.9877
0.0158681 0.0224108 0.00375001 65.8102
0.0182589 0.0243556 0.00374999 52.5342
0.0265126 0.0304203 0.00374999 33.7088
0.0430512 0.0400793 0.00375 16.8158
0.0409382 0.0389491 0.00375 17.1721
0.0451676 0.0412112 0.00125 12.3922
0.0618131 0.0495539 0.00125 -3.44639
0.0700363 0.0533415 0.00375 -10.2177
0.0677828 0.0523723 0.00125 -16.326
0.0677816 0.0523749 0.00374999 -14.0518
0.0844463 0.0594837 0.00375001 -26.7029
0.0867438 0.0603536 0.00125 -25.5463
0.109733 0.0686517 0.00375 -34.4475
0.107435 0.0678823 0.00375006 -31.3408
0.111448 0.0692157 0.00125 -34.5725
0.117778 0.0713216 0.00125 -37.5605
0.117778 0.0713233 0.00375003 -37.5355
0.142656 0.0787041 0.00374996 -47.5572
0.145053 0.0793798 0.00125 -44.7078
0.0264127 -0.0107599 0.00374998 -95.5763
0.0282212 -0.0108018 0.00125 -75.8341
0.0302103 -0.0108155 0.00125 -68.7137
0.00547002 -0.00679765 0.00374999 -203.062
0.00143948 -0.00309443 0.00375002 -86.8252
0.000300522 -0.00090999 0.00374997 -18.1054
0.00138673 0.00543826 0.00375 120.567
0.00584483 0.0124572 0.00125 86.4368
0.00790312 0.0148477 0.00125 80.0571
0.014115 0.0208496 0.00125 61.1988
0.0201895 0.0257898 0.00374999 53.3778
0.0220894 0.0271949 0.00375001 50.4158
0.0245664 0.0290271 0.00375 43.3278
0.0305852 0.0329173 0.00375 31.8745
0.0326383 0.0341513 0.00125 26.915
0.0305852 0.0329173 0.00125 28.0369
0.0388237 0.0378181 0.00124998 12.7923
0.0388236 0.0378182 0.00375 15.0857
0.0472819 0.042342 0.00375 11.7343
0.0493989 0.0434742 0.00125 6.75006
0.0493989 0.0434743 0.00375001 8.66889
0.0472819 0.042342 0.00125 9.73408
0.053141 0.0453847 0.00374996 1.1286
0.0553372 0.0464394 0.00375002 3.76636
0.0574973 0.0474805 0.00374999 1.73395
0.0639772 0.0505932 0.00125 -6.01181
0.0661609 0.0516418 0.00125 -9.6494
0.0661609 0.0516419 0.00375 -7.98506
0.0722765 0.0543039 0.00374998 -10.8792
0.082793 0.0588075 0.00375 -21.3133
0.0890204 0.0612055 0.00374999 -23.1512
0.0906999 0.0618265 0.00125 -24.3261
0.0906997 0.0618269 0.00375 -23.6064
0.0890204 0.0612055 0.00125 -23.8209
0.0930065 0.0626842 0.00375001 -23.8631
0.0952866 0.0635343 0.00374999 -25.7311
0.0969653 0.0641562 0.00375 -26.8327
0.113774 0.0699888 0.00125 -32.8221
0.116073 0.0707587 0.00125 -36.081
0.116073 0.0707587 0.00375 -36.1448
0.12242 0.0728681 0.00375 -42.6676
0.128391 0.0746419 0.00375006 -40.7566
0.132483 0.0758129 0.00375 -43.2509
0.130713 0.075309 0.00125 -43.0906
0.130714 0.075309 0.00375 -42.7902
0.140816 0.0781856 0.00375 -46.4258
0.139046 0.0776818 0.00125 -44.2806
0.147379 0.080025 0.00374988 -54.2417
0.149162 0.0804761 0.00125 -50.0354
0.149162 0.080476 0.00375 -50.7263
0.147379 0.0800251 0.00125 -54.4085
0.0264128 -0.0107599 0.00625001 -95.8418
0.0282212 -0.0108017 0.00875 -76.7005
0.0302103 -0.0108155 0.00875 -69.1024
0.00986925 -0.00870838 0.00625 -180.716
0.0116539 -0.00912788 0.00875 -137.778
0.0116539 -0.00912788 0.00625 -172.943
0.00547 -0.00679764 0.00625 -203.911
0.00143945 -0.00309434 0.00625001 -88.3873
0.000300489 -0.000909893 0.00624999 -20.0132
0.000200374 0.00101872 0.00625 84.5021
0.00138678 0.00543818 0.00875 91.6582
0.000586798 0.00298335 0.00875 69.2328
0.00138672 0.00543824 0.00625 119.346
0.000586801 0.00298336 0.00625 105.958
0.00390549 0.00991123 0.00875 93.6694
0.00584478 0.0124572 0.00875 85.8212
0.00790308 0.0148477 0.00624999 94.3511
0.0123384 0.0192647 0.00875 64.2128
0.0158684 0.0224104 0.00625 65.3774
0.0141149 0.0208496 0.00875 60.5806
0.0182593 0.0243552 0.00625 52.1993
0.0201895 0.0257898 0.00624999 52.9497
0.0220896 0.0271946 0.00625001 50.0165
0.0245666 0.0290269 0.00625 42.9888
0.0265127 0.0304203 0.00625 33.3331
0.0305852 0.0329173 0.00625 31.5186
0.0326383 0.0341513 0.00625 30.2901
0.0305852 0.0329173 0.00875 27.4653
0.0388238 0.0378178 0.00875 12.2821
0.0388237 0.0378181 0.00625 14.7988
0.0430512 0.0400793 0.00625 16.5295
0.0472819 0.042342 0.00625 11.4738
0.049399 0.0434743 0.00875 6.32672
0.049399 0.0434742 0.00625 8.43899
0.0472819 0.042342 0.00875 9.28125
0.053141 0.0453844 0.00625 0.89653
0.0553373 0.0464391 0.00625001 3.62847
0.0574974 0.0474803 0.00625 1.51913
0.0618132 0.0495539 0.00875 -3.78955
0.0639771 0.0505931 0.00875 -6.32852
0.0661609 0.0516419 0.00874999 -9.97352
0.066161 0.0516419 0.00625 -8.15964
0.0700363 0.0533413 0.00625001 -10.36
0.0677828 0.052372 0.00875001 -16.6788
0.0677817 0.0523748 0.00624999 -14.2274
0.0700375 0.0533386 0.00875 -10.778
0.0722764 0.0543039 0.00625 -11.0956
0.0783681 0.0569126 0.00875 -17.0742
0.0783681 0.0569126 0.00625 -15.9324
0.0805723 0.0578565 0.00875 -19.2971
0.0805723 0.0578565 0.00625 -18.4465
0.082793 0.0588075 0.00625 -21.4233
0.0844464 0.0594835 0.00624997 -26.8136
0.0867439 0.0603532 0.00875 -25.6562
0.0890205 0.0612055 0.00625 -23.2439
0.0907001 0.0618259 0.00874999 -24.5997
0.0906999 0.0618264 0.00625 -23.7481
0.0890204 0.0612055 0.00875 -24.0262
0.0930067 0.0626838 0.00625 -23.8466
0.0952866 0.0635343 0.00625 -25.8318
0.0969653 0.0641562 0.00625 -26.9558
0.101562 0.0658665 0.00625 -30.86
0.103292 0.0664918 0.00874999 -35.5102
0.103292 0.0664919 0.00625 -34.8367
0.105096 0.0670889 0.00875001 -38.0518
0.105094 0.067097 0.00624998 -37.0667
0.109733 0.0686517 0.00625 -34.789
0.111447 0.0692154 0.00875 -35.3397
0.113773 0.0699884 0.00875 -32.8001
0.116073 0.0707587 0.00875 -36.2703
0.116073 0.0707587 0.00625 -36.2196
0.117778 0.0713215 0.00875 -37.7967
0.117778 0.0713233 0.00624996 -37.6341
0.120118 0.0720992 0.00875 -37.4751
0.12242 0.0728681 0.00625 -42.7321
0.132483 0.0758129 0.00625 -43.4389
0.130713 0.075309 0.00875 -43.4565
0.130713 0.0753091 0.00625 -42.9571
0.134326 0.0763288 0.00624998 -44.3141
0.136724 0.0770058 0.00875 -38.5833
0.136722 0.0770114 0.00625004 -41.536
0.140816 0.0781855 0.00625 -46.6617
0.139046 0.0776819 0.00875 -45.0294
0.142656 0.0787038 0.00625 -47.6867
0.145053 0.0793791 0.00875 -44.6133
0.14738 0.0800251 0.00625 -54.323
0.149162 0.080476 0.00875 -50.2714
0.149162 0.0804761 0.00625 -50.7954
0.14738 0.080025 0.00875 -54.6738
0.0490523 -0.010642 0.00125001 -29.7101
0.049052 -0.010642 0.00874999 -31.806
0.0490521 -0.010642 0.00375001 -39.9991
0.046909 -0.0106865 0.00374992 -38.0872
0.049052 -0.010642 0.00625001 -47.5196
0.0469091 -0.0106865 0.00875 -30.3793
0.0469091 -0.0106865 0.00624997 -40.4163
0.551041 0.00119257 0 25.3316
0.559375 0.00119249 0 25.8283
0.567708 0.00119252 0 26.3525
0.567708 0.0107194 0 27.0133
0.576042 0.00119259 0 26.8723
0.576041 0.0107218 0 27.5075
0.576021 0.0204946 0 27.8259
0.584375 0.00119258 0 27.3143
0.584374 0.0107217 0 27.9133
0.584355 0.0205525 0 28.2165
0.592709 0.00119253 0 27.7799
0.592708 0.0107159 0 28.4411
0.592705 0.0202704 0 28.7137
0.551041 0.00119257 0.01 25.4286
0.559375 0.0011925 0.01 25.9809
0.567708 0.00119252 0.01 26.495
0.567708 0.0107193 0.01 27.2715
0.576042 0.0011926 0.01 27.0112
0.576041 0.0107217 0.01 27.6039
0.576024 0.020507 0.01 28.1299
0.584375 0.00119259 0.01 27.4705
0.584374 0.0107215 0.01 28.1137
0.584355 0.0205506 0.01 28.5581
0.592709 0.00119254 0.01 27.9062
0.592708 0.0107159 0.01 28.5768
0.592705 0.0202704 0.01 28.8952
0.551041 -0.00114394 0 25.1355
0.557292 -0.00114396 0 25.4891
0.559375 -0.00114396 0 25.6323
0.565625 -0.00114396 0 26.0121
0.567708 -0.00114396 0 26.1472
0.573959 -0.00114412 0 26.5251
0.573955 0.0204681 0 27.6096
0.576041 -0.00114412 0 26.6582
0.582292 -0.00114412 0 26.9901
0.582273 0.0205724 0 28.2742
0.584375 -0.00114412 0 27.1106
0.590625 -0.00114413 0 27.4507
0.590744 0.0263698 0 28.3164
0.590616 0.0203182 0 28.5966
0.592708 -0.00114414 0 27.5734
0.592779 0.026369 0 29.1396
0.557292 -0.00114383 0.01 25.6288
0.551041 -0.0011438 0.01 25.2359
0.565625 -0.00114382 0.01 26.1718
0.559375 -0.00114383 0.01 25.7782
0.573959 -0.00114387 0.01 26.6778
0.567708 -0.00114382 0.01 26.2996
0.57395 0.0204816 0.01 27.8812
0.582292 -0.00114387 0.01 27.14
0.576041 -0.00114387 0.01 26.7956
0.582274 0.0205703 0.01 28.4681
0.590625 -0.00114389 0.01 27.5984
0.584375 -0.00114387 0.01 27.2617
0.590616 0.0203179 0.01 28.7536
0.590748 0.0263839 0.01 29.0235
0.592708 -0.00114389 0.01 27.7092
0.592771 0.0263899 0.01 28.7527
0.576042 0.00833589 0 27.4033
0.582291 0.00833604 0 27.5669
0.582291 0.00119259 0 27.169
0.584375 0.00833572 0 27.7282
0.590625 0.00833435 0 28.1444
0.590625 0.00119254 0 27.6378
0.592708 0.00833392 0 28.2804
0.582291 0.0011926 0.01 27.3291
0.582291 0.00833598 0.01 27.7882
0.576042 0.00833583 0.01 27.5435
0.590625 0.00119255 0.01 27.8013
0.590625 0.00833432 0.01 28.3166
0.584375 0.00833567 0.01 27.9309
0.592708 0.00833391 0.01 28.4239
0.573942 0.0250296 0 28.1569
0.571869 0.0248846 0 27.4652
0.578125 -0.00114366 0 26.7676
0.578125 -0.00309124 0 26.6055
0.576041 -0.00309272 0 26.4955
0.582292 -0.00309272 0 26.8265
0.580209 -0.00309124 0 26.707
0.580209 -0.00114366 0 26.872
0.578093 0.025177 0 28.1222
0.576016 0.0251248 0 27.6423
0.582275 0.0254495 0 28.561
0.58016 0.0253227 0 27.6438
0.586458 -0.00114367 0 27.2166
0.586458 -0.00309125 0 27.0508
0.584375 -0.00309273 0 26.9439
0.590625 -0.00309273 0 27.2832
0.588542 -0.00309125 0 27.1615
0.588542 -0.00114368 0 27.3268
0.586364 0.0254581 0 27.8961
0.584312 0.0254866 0 27.5395
0.590633 0.0248887 0 28.5952
0.588415 0.0252343 0 28.8084
0.588893 0.0264646 0 28.8487
0.594791 -0.00114369 0 27.6786
0.594791 -0.00309125 0 27.5044
0.592708 -0.00309273 0 27.3997
0.596875 -0.00309125 0 27.6127
0.596875 -0.00114369 0 27.7872
0.592726 0.0247326 0 29.0296
0.551041 0.00833624 0 25.8041
0.557291 0.00833409 0 26.0498
0.557292 0.00119249 0 25.6643
0.559375 0.00833412 0 26.2439
0.565625 0.00833479 0 26.6911
0.565625 0.00119251 0 26.193
0.567709 0.00833504 0 26.8372
0.573958 0.00833581 0 27.2349
0.573958 0.00119259 0 26.7182
0.567704 0.0179395 0 27.4158
0.573952 0.0179734 0 27.6229
0.573958 0.0107211 0 27.3223
0.576042 0.0035717 0 27.057
0.578125 0.00357171 0 27.1384
0.578125 0.00119257 0 26.9737
0.576035 0.017984 0 27.7292
0.582284 0.0180013 0 28.0592
0.582291 0.0107224 0 27.7125
0.576024 0.0229785 0 27.8072
0.578099 0.0230199 0 27.7519
0.578119 0.0205171 0 27.8434
0.584375 0.00357169 0 27.4731
0.586458 0.00357164 0 27.597
0.586459 0.00119255 0 27.4224
0.584367 0.0179915 0 28.1804
0.590621 0.0178984 0 28.5878
0.590625 0.0107171 0 28.2406
0.584345 0.0231664 0 28.0508
0.586414 0.0230751 0 28.4428
0.586437 0.0204932 0 28.3244
0.592708 0.0035715 0 27.9608
0.594791 0.00357147 0 28.0615
0.594792 0.0011925 0 27.8842
0.592707 0.0178763 0 28.7474
0.592696 0.0226206 0 28.8781
0.557292 0.0011925 0.01 25.8179
0.557291 0.00833407 0.01 26.2441
0.551041 0.00833618 0.01 25.9236
0.565625 0.00119251 0.01 26.3702
0.565625 0.00833475 0.01 26.9056
0.559375 0.0083341 0.01 26.4354
0.573958 0.00119259 0.01 26.8927
0.573958 0.00833575 0.01 27.3858
0.567709 0.008335 0.01 27.0336
0.573958 0.010721 0.01 27.4522
0.573952 0.0179726 0.01 27.7872
0.567704 0.0179389 0.01 27.6885
0.578125 0.00119258 0.01 27.0978
0.578125 0.0035717 0.01 27.2601
0.576042 0.00357169 0.01 27.1932
0.582291 0.0107223 0.01 27.9972
0.582284 0.0180004 0.01 28.3155
0.576035 0.0179831 0.01 27.9241
0.578114 0.0205298 0.01 28.1836
0.578102 0.0230407 0.01 28.1426
0.576024 0.022987 0.01 28.3097
0.586459 0.00119256 0.01 27.5887
0.586458 0.00357164 0.01 27.7695
0.584375 0.00357168 0.01 27.64
0.590625 0.0107171 0.01 28.4594
0.590621 0.0178981 0.01 28.796
0.584367 0.0179906 0.01 28.4619
0.586437 0.0204916 0.01 28.7354
0.586411 0.0231199 0.01 28.9845
0.584351 0.0231886 0.01 28.4944
0.594792 0.00119251 0.01 28.0136
0.594791 0.00357147 0.01 28.1815
0.592708 0.0035715 0.01 28.0808
0.592707 0.0178762 0.01 28.9277
0.5927 0.0226377 0.01 28.9764
0.553125 -0.00114371 0 25.2472
0.553125 -0.00309131 0 25.0972
0.551041 -0.0030926 0 24.9832
0.557292 -0.00309261 0 25.3486
0.555209 -0.00309131 0 25.2093
0.555209 -0.00114372 0 25.3514
0.561458 -0.00114373 0 25.7547
0.561458 -0.00309131 0 25.6077
0.559375 -0.00309261 0 25.4863
0.565625 -0.00309261 0 25.8621
0.563542 -0.00309131 0 25.7296
0.563542 -0.00114372 0 25.8759
0.569791 -0.00114372 0 26.265
0.569791 -0.00309131 0 26.1072
0.567708 -0.00309261 0 25.9901
0.573959 -0.00309273 0 26.363
0.571875 -0.00309125 0 26.2297
0.571875 -0.00114367 0 26.3872
0.571856 0.020444 0 27.7482
0.571871 0.022848 0 27.6934
0.573942 0.0229232 0 27.8477
0.580191 0.0205658 0 28.0589
0.580192 0.0231514 0 27.7559
0.582254 0.0231967 0 28.6923
0.588524 0.0204022 0 28.5234
0.588506 0.0229095 0 28.8323
0.590606 0.0227487 0 28.7142
0.555209 -0.00114359 0.01 25.4787
0.555209 -0.00309047 0.01 25.3323
0.557292 -0.00309177 0.01 25.4784
0.551041 -0.00309176 0.01 25.0897
0.553125 -0.00309047 0.01 25.2094
0.553125 -0.00114358 0.01 25.3562
0.563542 -0.00114359 0.01 26.0395
0.563542 -0.00309047 0.01 25.8807
0.565625 -0.00309177 0.01 26.0137
0.559375 -0.00309177 0.01 25.6215
0.561458 -0.00309047 0.01 25.7508
0.561458 -0.00114359 0.01 25.9107
0.571875 -0.00114353 0.01 26.5491
0.571875 -0.00309041 0.01 26.3797
0.573959 -0.00309178 0.01 26.5058
0.567708 -0.00309177 0.01 26.1391
0.569791 -0.00309047 0.01 26.2566
0.569791 -0.00114358 0.01 26.4215
0.573941 0.0229322 0.01 27.9302
0.571866 0.0228715 0.01 27.8923
0.57186 0.020457 0.01 27.9644
0.571866 0.0249236 0.01 27.9027
0.573942 0.0250429 0.01 27.6773
0.580209 -0.00114352 0.01 27.014
0.580209 -0.00309041 0.01 26.85
0.582292 -0.00309178 0.01 26.9686
0.576041 -0.00309178 0.01 26.6242
0.578125 -0.00309041 0.01 26.7347
0.578125 -0.00114352 0.01 26.9003
0.582258 0.0231803 0.01 28.6431
0.580188 0.0231388 0.01 28.075
0.580191 0.0205637 0.01 28.3062
0.580165 0.0253423 0.01 28.1402
0.582266 0.0254528 0.01 28.1149
0.576014 0.025138 0.01 28.6886
0.578092 0.0252146 0.01 28.3607
0.588542 -0.00114354 0.01 27.4831
0.588542 -0.00309041 0.01 27.3045
0.590625 -0.00309179 0.01 27.4214
0.584375 -0.00309178 0.01 27.0821
0.586458 -0.00309041 0.01 27.1903
0.586458 -0.00114353 0.01 27.3718
0.590606 0.0227486 0.01 28.7491
0.5885 0.02293 0.01 29.1106
0.588524 0.0204013 0.01 28.7815
0.588891 0.0265043 0.01 28.797
0.588419 0.0252804 0.01 29.1533
0.590628 0.024901 0.01 28.4413
0.584305 0.0255289 0.01 28.7653
0.586363 0.0255338 0.01 28.4222
0.596875 -0.00114355 0.01 27.9286
0.596875 -0.00309041 0.01 27.7429
0.592708 -0.00309179 0.01 27.5307
0.594791 -0.00309041 0.01 27.6333
0.594791 -0.00114354 0.01 27.8153
0.592723 0.0247675 0.01 28.8876
0.578125 0.00833593 0 27.4632
0.578125 0.00595326 0 27.3058
0.576042 0.00595322 0 27.2477
0.582291 0.00595326 0 27.4347
0.580209 0.00595328 0 27.3253
0.580208 0.00833619 0 27.4655
0.580208 0.00119257 0 27.0507
0.580209 0.00357172 0 27.1885
0.582291 0.00357171 0 27.3086
0.586458 0.00833551 0 27.8721
0.586458 0.00595306 0 27.7327
0.584375 0.00595319 0 27.5884
0.590625 0.00595272 0 28.0084
0.588541 0.00595289 0 27.8682
0.588541 0.00833488 0 27.9997
0.588541 0.00119254 0 27.5123
0.588541 0.00357159 0 27.6905
0.590625 0.00357154 0 27.8201
0.594791 0.00833366 0 28.3808
0.594791 0.0059525 0 28.217
0.592708 0.00595259 0 28.1238
0.596875 0.00595246 0 28.332
0.596875 0.00833354 0 28.4879
0.596875 0.00119249 0 27.9746
0.596875 0.00357145 0 28.1505
0.582291 0.0035717 0.01 27.4816
0.580208 0.0035717 0.01 27.3354
0.580208 0.00119258 0.01 27.1918
0.580208 0.00833613 0.01 27.6683
0.580209 0.00595326 0.01 27.488
0.582291 0.00595323 0.01 27.6237
0.576042 0.0059532 0.01 27.3862
0.578125 0.00595324 0.01 27.4409
0.578125 0.00833587 0.01 27.6233
0.590625 0.00357154 0.01 27.9861
0.588541 0.00357159 0.01 27.8807
0.588541 0.00119255 0.01 27.6946
0.588541 0.00833484 0.01 28.1846
0.588541 0.00595288 0.01 28.0486
0.590625 0.00595271 0.01 28.1654
0.584375 0.00595316 0.01 27.7851
0.586458 0.00595304 0.01 27.9243
0.586458 0.00833546 0.01 28.0578
0.596875 0.00357146 0.01 28.3103
0.596875 0.0011925 0.01 28.1346
0.596875 0.00833354 0.01 28.6382
0.596875 0.00595246 0.01 28.4819
0.592708 0.00595258 0.01 28.2605
0.594791 0.0059525 0.01 28.3541
0.594791 0.00833365 0.01 28.5156
0.101093 -0.00919501 0 -21.2665
0.109385 -0.00876016 0 -17.4708
0.117693 -0.00822008 0 -14.8568
0.125998 -0.00774877 0 -13.4021
0.134271 -0.00743849 0 -12.3119
0.142702 -0.00798999 0 -10.7475
0.151032 -0.00777377 0 -10.0669
0.15934 -0.00740347 0 -9.37897
0.16766 -0.00718291 0 -8.80713
0.176018 -0.0076363 0 -8.24137
0.184371 -0.00773988 0 -7.74648
0.192684 -0.00761805 0 -7.29757
0.201019 -0.00747914 0 -7.11405
0.209366 -0.00775086 0 -6.91895
0.217709 -0.00781607 0 -6.51867
0.226037 -0.00774777 0 -6.15748
0.234365 -0.00767837 0 -5.72806
0.242699 -0.00770513 0 -5.13803
0.243053 0.000406878 0 -4.33314
0.251052 0.000560668 0 -4.26249
0.1011 -0.00917048 0.01 -21.0292
0.109395 -0.00873816 0.01 -17.0189
0.117702 -0.00820226 0.01 -14.2402
0.126007 -0.00773453 0.01 -12.8356
0.134278 -0.00743684 0.01 -11.6908
0.142732 -0.00800059 0.01 -10.73
0.151044 -0.00775151 0.01 -9.85937
0.159347 -0.00741766 0.01 -9.21046
0.167674 -0.00718652 0.01 -8.59953
0.176018 -0.00763619 0.01 -8.14358
0.184371 -0.00773948 0.01 -7.62873
0.19269 -0.00760616 0.01 -7.22492
0.201025 -0.00749327 0.01 -6.95971
0.209366 -0.00775008 0.01 -6.74946
0.217709 -0.00781477 0.01 -6.43235
0.226037 -0.0077472 0.01 -6.14745
0.234366 -0.0076789 0.01 -5.70759
0.242699 -0.00770661 0.01 -5.08327
0.243052 0.000433816 0.01 -4.58471
0.251056 0.000558977 0.01 -3.90736
0.0490424 -0.0108272 0 -29.7101
0.0508621 -0.0108253 0 -26.3828
0.0991799 -0.00934788 0 -23.1473
0.107352 -0.00884906 0 -18.2161
0.115657 -0.008354 0 -16.1506
0.123959 -0.00786462 0 -14.2872
0.132264 -0.00745458 0 -12.8522
0.140649 -0.00797115 0 -11.5756
0.148968 -0.00785052 0 -10.1845
0.157287 -0.00749534 0 -9.7551
0.165587 -0.00720717 0 -8.57303
0.173912 -0.00744952 0 -8.10808
0.182286 -0.00776731 0 -7.91282
0.190609 -0.00762927 0 -7.55739
0.198946 -0.0075188 0 -7.14545
0.207644 -0.00210182 0 -6.76157
0.207267 -0.00765824 0 -6.8252
0.209519 -0.00221416 0 -7.36445
0.215651 -0.00194939 0 -6.3133
0.215621 -0.00782621 0 -6.52366
0.217738 -0.00183307 0 -6.51227
0.22395 -0.00146597 0 -6.24657
0.22395 -0.00776587 0 -6.25898
0.226043 -0.00134317 0 -6.19163
0.232247 -0.000976902 0 -5.77536
0.232279 -0.00769406 0 -5.86952
0.234318 -0.000808545 0 -5.80434
0.240509 -0.00051347 0 -5.40226
0.24061 -0.0076827 0 -5.2641
0.242594 -0.000824798 0 -4.31745
0.248967 -0.00125271 0 -4.55288
0.248953 -0.00770848 0 -4.7087
0.249009 0.000444598 0 -4.34401
0.257303 0.000919451 0 -3.47977
0.0490354 -0.0108178 0.01 -31.806
0.050926 -0.0110853 0.01 -28.2657
0.0991641 -0.00931944 0.01 -25.2684
0.107341 -0.00882798 0.01 -18.2886
0.115645 -0.00833542 0.01 -15.9984
0.123947 -0.00784961 0.01 -14.1621
0.132255 -0.00745328 0.01 -12.6874
0.140646 -0.00798151 0.01 -11.637
0.148952 -0.0078277 0.01 -10.3328
0.157265 -0.00751084 0.01 -9.53272
0.165587 -0.00720733 0.01 -8.81639
0.173903 -0.00742945 0.01 -7.83774
0.182286 -0.00776661 0.01 -7.81084
0.190609 -0.00763015 0.01 -7.4429
0.198936 -0.00751944 0.01 -7.09632
0.207267 -0.00765835 0.01 -6.64676
0.207643 -0.00206472 0.01 -6.37692
0.215622 -0.00782484 0.01 -6.48483
0.215652 -0.00193307 0.01 -6.019
0.209519 -0.00217962 0.01 -7.13987
0.22395 -0.00776516 0.01 -6.27027
0.223954 -0.00146724 0.01 -6.01313
0.217737 -0.00182164 0.01 -6.62088
0.232279 -0.00769441 0.01 -5.89223
0.23225 -0.000975793 0.01 -5.5196
0.226039 -0.00134427 0.01 -6.46011
0.24061 -0.0076837 0.01 -5.27277
0.24051 -0.00050965 0.01 -5.09402
0.234323 -0.000824955 0.01 -6.11684
0.248953 -0.00770863 0.01 -4.70435
0.248967 -0.00127208 0.01 -4.40922
0.242587 -0.000801247 0.01 -4.48411
0.249004 0.000443278 0.01 -4.49317
0.257297 0.000937908 0.01 -3.76208
0.251039 -0.00768908 0 -4.43982
0.259353 -0.0076036 0 -2.26516
0.259354 0.00104857 0 -3.40769
0.267648 0.00152319 0 -2.53648
0.275901 0.00156015 0 -0.605547
0.284378 0.00113572 0 0.527375
0.292684 0.00143044 0 1.96731
0.301005 0.00169748 0 3.17118
0.309343 0.00131469 0 4.4668
0.317702 0.00129626 0 5.95804
0.326025 0.0014339 0 6.78367
0.33435 0.00150064 0 7.66161
0.342703 0.00124079 0 8.41398
0.351037 0.00125809 0 9.67728
0.359365 0.00131653 0 10.5222
0.367699 0.00126603 0 11.2144
0.36806 0.00983151 0 12.0042
0.37604 0.0012077 0 11.7662
0.376061 0.0100133 0 11.9143
0.384372 0.00123079 0 12.4579
0.38435 0.0106087 0 12.4939
0.392704 0.00124091 0 13.1338
0.392636 0.0110897 0 12.8941
0.40104 0.00120163 0 13.7147
0.401054 0.0105018 0 13.0417
0.409374 0.00120106 0 14.4164
0.409368 0.0107882 0 14.4195
0.417707 0.00121028 0 15.1132
0.417675 0.0111174 0 15.1625
0.42604 0.00120297 0 15.7442
0.425975 0.011015 0 16.6642
0.434375 0.00119364 0 16.4009
0.434364 0.0107562 0 16.7864
0.442708 0.00119964 0 17.0775
0.442687 0.0109001 0 17.3045
0.451041 0.00121353 0 17.7574
0.451017 0.0110045 0 17.9844
0.459374 0.0012282 0 18.4517
0.459371 0.0107585 0 18.5045
0.467707 0.00124459 0 19.1876
0.467704 0.0107775 0 19.5594
0.476041 0.00121869 0 19.8285
0.476032 0.0108386 0 20.2733
0.484375 0.00119596 0 20.4036
0.484364 0.010829 0 20.9321
0.492708 0.00119304 0 21.0322
0.492707 0.0107364 0 21.3867
0.492737 0.0195073 0 21.3513
0.501042 0.00119307 0 21.7114
0.501039 0.0107518 0 22.2019
0.501021 0.020069 0 22.4249
0.509375 0.00119327 0 22.3797
0.509371 0.0107689 0 22.8733
0.509317 0.0205648 0 22.8315
0.517708 0.00119281 0 22.9994
0.517706 0.0107338 0 23.4863
0.517704 0.0201406 0 23.1602
0.526041 0.00119257 0 23.6217
0.526041 0.0107215 0 24.172
0.526044 0.0201611 0 24.427
0.534375 0.00119267 0 24.2069
0.534374 0.0107304 0 24.7743
0.534357 0.0204546 0 25.1223
0.542708 0.00119272 0 24.7673
0.542707 0.0107359 0 25.3719
0.542681 0.020781 0 25.6247
0.551041 0.0107221 0 25.8928
0.551013 0.020336 0 26.1294
0.559375 0.0107163 0 26.4423
0.559365 0.0202704 0 26.9983
0.567699 0.0204213 0 27.4902
0.251039 -0.00768915 0.01 -4.40724
0.259353 -0.00760366 0.01 -2.22612
0.259362 0.00105841 0.01 -2.97584
0.267646 0.00156159 0.01 -2.07435
0.275918 0.00155904 0.01 0.0352934
0.284378 0.001143 0.01 0.922035
0.292689 0.00143669 0.01 2.10565
0.301006 0.00169893 0.01 3.27615
0.309348 0.00133215 0.01 4.3981
0.317702 0.00129567 0.01 5.97782
0.326025 0.00143218 0.01 6.81824
0.33435 0.00149862 0.01 7.69924
0.342704 0.00124073 0.01 8.3077
0.351037 0.00125771 0.01 9.51886
0.359365 0.00131575 0.01 10.3361
0.3677 0.00126553 0.01 11.0591
0.368058 0.00986982 0.01 11.6016
0.37604 0.00120756 0.01 11.7002
0.376066 0.0100695 0.01 12.6828
0.384372 0.00123045 0.01 12.4079
0.384355 0.010609 0.01 13.1189
0.392704 0.00124049 0.01 13.0896
0.392627 0.0111439 0.01 13.5316
0.401041 0.00120159 0.01 13.6794