/*--------------------------------*- C++ -*----------------------------------*\
| =========                 |                                                 |
| \\      /  F ield         | OpenFOAM: The Open Source CFD Toolbox           |
|  \\    /   O peration     | Version:  2506                                  |
|   \\  /    A nd           | Website:  www.openfoam.com                      |
|    \\/     M anipulation  |                                                 |
\*---------------------------------------------------------------------------*/
FoamFile
{
    version     2.0;
    format      ascii;
    arch        "LSB;label=32;scalar=64";
    class       volScalarField;
    location    "900";
    object      epsilon;
}
// * * * * * * * * * * * * * * * * * * * * * * * * * * * * * * * * * * * * * //

dimensions      [0 2 -3 0 0 0 0];

internalField   nonuniform List<scalar> 
131949
(
0.427376
0.492067
0.494247
0.487068
0.480358
0.474538
0.469357
0.464769
0.46069
0.457007
0.453634
0.450511
0.447589
0.444834
0.442216
0.439715
0.437313
0.434998
0.432757
0.430582
0.428466
0.426403
0.424386
0.422412
0.420477
0.418578
0.416711
0.414876
0.413068
0.411287
0.40953
0.407797
0.406085
0.404395
0.402724
0.401072
0.399438
0.39782
0.396219
0.394634
0.393064
0.391509
0.389968
0.38844
0.386925
0.385423
0.383934
0.382457
0.380991
0.379537
0.378093
0.376661
0.37524
0.373828
0.372427
0.371036
0.369655
0.368283
0.366921
0.365567
0.364223
0.362888
0.361561
0.360244
0.358934
0.357633
0.35634
0.355055
0.353779
0.35251
0.351249
0.349995
0.348749
0.347511
0.34628
0.345056
0.34384
0.34263
0.341428
0.340233
0.339044
0.337862
0.336688
0.335519
0.334358
0.333202
0.332054
0.330911
0.329775
0.328646
0.327522
0.326405
0.325294
0.324189
0.323089
0.321996
0.320909
0.319827
0.318752
0.317682
0.316617
0.315559
0.314506
0.313458
0.312416
0.311379
0.310348
0.309323
0.308302
0.307287
0.306277
0.305272
0.304273
0.303278
0.302289
0.301304
0.300325
0.299351
0.298381
0.297417
0.296457
0.295502
0.294552
0.293607
0.292666
0.291731
0.290799
0.289873
0.288951
0.288034
0.287121
0.286212
0.285308
0.284409
0.283514
0.282623
0.281737
0.280855
0.279977
0.279104
0.278234
0.277369
0.276509
0.275652
0.274799
0.273951
0.273107
0.272266
0.27143
0.270598
0.269769
0.268945
0.268125
0.267308
0.266495
0.265687
0.264882
0.26408
0.263283
0.262489
0.261699
0.260913
0.26013
0.259352
0.258576
0.257805
0.257037
0.256272
0.255511
0.254754
0.254
0.253249
0.252503
0.251759
0.251019
0.250282
0.249549
0.248819
0.248093
0.24737
0.24665
0.245933
0.24522
0.24451
0.243803
0.243099
0.242399
0.241701
0.241007
0.240316
0.239628
0.238944
0.238262
0.237583
0.236908
0.236235
0.235566
0.234899
0.234236
0.233575
0.232917
0.232263
0.231611
0.230962
0.230316
0.229673
0.229032
0.228395
0.22776
0.227128
0.226499
0.225873
0.225249
0.224629
0.22401
0.223395
0.222782
0.222172
0.221565
0.22096
0.220358
0.219758
0.219161
0.218567
0.217975
0.217386
0.216799
0.216215
0.215634
0.215054
0.214478
0.213904
0.213332
0.212763
0.212196
0.211631
0.211069
0.210509
0.209952
0.209397
0.208845
0.208294
0.207746
0.207201
0.206657
0.206116
0.205577
0.205041
0.204506
0.203974
0.203444
0.202917
0.202391
0.201868
0.201347
0.200828
0.200311
0.199796
0.199284
0.198773
0.198265
0.197759
0.197254
0.196752
0.196252
0.195754
0.195258
0.194764
0.194272
0.193782
0.193294
0.192808
0.192324
0.191841
0.191361
0.190883
0.190407
0.189932
0.189459
0.188989
0.18852
0.188053
0.187588
0.187125
0.186663
0.186204
0.185746
0.18529
0.184836
0.184383
0.183933
0.183484
0.183037
0.182591
0.182148
0.181706
0.181266
0.180827
0.180391
0.179956
0.179522
0.179091
0.17866
0.178232
0.177805
0.17738
0.176957
0.176535
0.176115
0.175696
0.175279
0.174864
0.17445
0.174037
0.173627
0.173218
0.17281
0.172404
0.171999
0.171596
0.171195
0.170795
0.170396
0.169999
0.169603
0.169209
0.168817
0.168425
0.168036
0.167647
0.167261
0.166875
0.166491
0.166109
0.165727
0.165348
0.164969
0.164592
0.164216
0.163842
0.163469
0.163098
0.162727
0.162359
0.161991
0.161625
0.16126
0.160896
0.160534
0.160173
0.159813
0.159455
0.159098
0.158742
0.158388
0.158034
0.157682
0.157331
0.156982
0.156633
0.156286
0.15594
0.155596
0.155252
0.15491
0.154569
0.154229
0.15389
0.153553
0.153217
0.152881
0.152547
0.152214
0.151883
0.151552
0.151223
0.150894
0.150567
0.150241
0.149916
0.149592
0.14927
0.148948
0.148628
0.148308
0.14799
0.147672
0.147356
0.147041
0.146727
0.146414
0.146102
0.145791
0.145481
0.145172
0.144864
0.144558
0.144255
0.143965
0.143726
0.270384
0.330571
0.37502
0.402595
0.419761
0.430198
0.436093
0.439156
0.440497
0.440759
0.440326
0.439444
0.438266
0.436893
0.43539
0.4338
0.432152
0.430468
0.428761
0.427042
0.425318
0.423593
0.421873
0.420158
0.418452
0.416755
0.415069
0.413394
0.411731
0.41008
0.408441
0.406814
0.4052
0.403597
0.402007
0.400428
0.398862
0.397307
0.395763
0.394231
0.39271
0.3912
0.3897
0.388211
0.386733
0.385265
0.383807
0.382359
0.38092
0.379492
0.378073
0.376663
0.375262
0.373871
0.372488
0.371115
0.36975
0.368393
0.367046
0.365706
0.364375
0.363052
0.361737
0.36043
0.35913
0.357839
0.356555
0.355279
0.354011
0.352749
0.351496
0.350249
0.34901
0.347777
0.346552
0.345334
0.344123
0.342918
0.341721
0.34053
0.339345
0.338167
0.336996
0.335831
0.334673
0.333521
0.332375
0.331236
0.330102
0.328975
0.327854
0.326739
0.325629
0.324526
0.323429
0.322337
0.321251
0.320171
0.319097
0.318028
0.316965
0.315907
0.314855
0.313809
0.312768
0.311732
0.310701
0.309676
0.308656
0.307641
0.306632
0.305627
0.304628
0.303634
0.302645
0.301661
0.300681
0.299707
0.298738
0.297773
0.296814
0.295859
0.294908
0.293963
0.293022
0.292086
0.291155
0.290228
0.289306
0.288388
0.287475
0.286566
0.285661
0.284762
0.283866
0.282975
0.282088
0.281206
0.280327
0.279453
0.278583
0.277718
0.276856
0.275999
0.275146
0.274297
0.273452
0.272611
0.271774
0.270941
0.270112
0.269287
0.268466
0.267648
0.266835
0.266025
0.265219
0.264417
0.263619
0.262825
0.262034
0.261247
0.260464
0.259684
0.258908
0.258135
0.257366
0.256601
0.255839
0.255081
0.254326
0.253575
0.252827
0.252083
0.251342
0.250605
0.249871
0.24914
0.248412
0.247688
0.246968
0.24625
0.245536
0.244825
0.244117
0.243413
0.242711
0.242013
0.241318
0.240626
0.239938
0.239252
0.238569
0.23789
0.237213
0.23654
0.23587
0.235202
0.234538
0.233876
0.233218
0.232562
0.23191
0.23126
0.230613
0.229969
0.229328
0.22869
0.228054
0.227421
0.226791
0.226164
0.22554
0.224918
0.224299
0.223683
0.223069
0.222458
0.22185
0.221245
0.220642
0.220041
0.219444
0.218848
0.218256
0.217666
0.217078
0.216493
0.215911
0.215331
0.214753
0.214178
0.213606
0.213036
0.212468
0.211903
0.21134
0.210779
0.210221
0.209666
0.209112
0.208561
0.208012
0.207466
0.206922
0.20638
0.20584
0.205303
0.204768
0.204235
0.203705
0.203176
0.20265
0.202126
0.201604
0.201084
0.200567
0.200051
0.199538
0.199027
0.198518
0.198011
0.197506
0.197003
0.196502
0.196003
0.195506
0.195012
0.194519
0.194028
0.193539
0.193053
0.192568
0.192085
0.191604
0.191125
0.190648
0.190173
0.189699
0.189228
0.188759
0.188291
0.187825
0.187361
0.186899
0.186439
0.18598
0.185524
0.185069
0.184616
0.184165
0.183715
0.183267
0.182821
0.182377
0.181935
0.181494
0.181055
0.180617
0.180182
0.179748
0.179315
0.178885
0.178456
0.178028
0.177603
0.177179
0.176756
0.176335
0.175916
0.175498
0.175082
0.174668
0.174255
0.173844
0.173434
0.173025
0.172619
0.172214
0.17181
0.171408
0.171007
0.170608
0.17021
0.169814
0.16942
0.169026
0.168635
0.168244
0.167855
0.167468
0.167082
0.166697
0.166314
0.165932
0.165552
0.165173
0.164796
0.164419
0.164045
0.163671
0.163299
0.162928
0.162559
0.162191
0.161824
0.161459
0.161094
0.160732
0.16037
0.16001
0.159651
0.159293
0.158937
0.158582
0.158228
0.157875
0.157524
0.157174
0.156825
0.156477
0.156131
0.155786
0.155442
0.155099
0.154758
0.154417
0.154078
0.15374
0.153403
0.153067
0.152733
0.1524
0.152067
0.151736
0.151406
0.151078
0.15075
0.150423
0.150098
0.149774
0.149451
0.149128
0.148807
0.148488
0.148169
0.147851
0.147534
0.147219
0.146904
0.14659
0.146278
0.145967
0.145656
0.145347
0.145039
0.144732
0.144429
0.144138
0.143899
0.228178
0.258029
0.288821
0.31625
0.339563
0.358691
0.373778
0.385404
0.394261
0.400941
0.405918
0.409573
0.412202
0.414033
0.415238
0.415949
0.416269
0.416276
0.416031
0.415584
0.41497
0.414222
0.413362
0.412411
0.411384
0.410295
0.409153
0.407968
0.406747
0.405497
0.404221
0.402926
0.401613
0.400288
0.398951
0.397605
0.396253
0.394896
0.393536
0.392173
0.390809
0.389445
0.388081
0.386719
0.385358
0.384
0.382645
0.381293
0.379945
0.378601
0.377262
0.375927
0.374597
0.373271
0.371951
0.370637
0.369327
0.368023
0.366725
0.365432
0.364145
0.362864
0.361589
0.36032
0.359057
0.357799
0.356548
0.355302
0.354063
0.352829
0.351602
0.35038
0.349165
0.347955
0.346751
0.345554
0.344362
0.343176
0.341996
0.340822
0.339654
0.338492
0.337335
0.336184
0.335039
0.3339
0.332766
0.331638
0.330516
0.3294
0.328288
0.327183
0.326083
0.324988
0.323899
0.322816
0.321738
0.320665
0.319597
0.318535
0.317478
0.316427
0.31538
0.314339
0.313303
0.312272
0.311246
0.310226
0.30921
0.308199
0.307194
0.306193
0.305197
0.304206
0.30322
0.302239
0.301262
0.30029
0.299323
0.298361
0.297404
0.296451
0.295502
0.294559
0.29362
0.292685
0.291755
0.29083
0.289908
0.288992
0.28808
0.287172
0.286268
0.285369
0.284474
0.283584
0.282697
0.281815
0.280937
0.280064
0.279194
0.278329
0.277467
0.27661
0.275757
0.274908
0.274063
0.273222
0.272384
0.271551
0.270722
0.269896
0.269075
0.268257
0.267443
0.266633
0.265827
0.265024
0.264225
0.26343
0.262639
0.261851
0.261067
0.260286
0.25951
0.258736
0.257967
0.2572
0.256438
0.255679
0.254923
0.254171
0.253422
0.252677
0.251935
0.251196
0.250461
0.249729
0.249001
0.248276
0.247554
0.246835
0.24612
0.245408
0.244699
0.243993
0.243291
0.242591
0.241895
0.241202
0.240512
0.239825
0.239142
0.238461
0.237783
0.237109
0.236437
0.235768
0.235103
0.23444
0.23378
0.233123
0.232469
0.231818
0.23117
0.230525
0.229882
0.229243
0.228606
0.227972
0.227341
0.226712
0.226086
0.225463
0.224843
0.224226
0.223611
0.222998
0.222389
0.221782
0.221178
0.220576
0.219977
0.21938
0.218787
0.218195
0.217606
0.21702
0.216436
0.215855
0.215276
0.2147
0.214126
0.213555
0.212986
0.212419
0.211855
0.211293
0.210734
0.210176
0.209622
0.209069
0.208519
0.207972
0.207426
0.206883
0.206342
0.205804
0.205267
0.204733
0.204201
0.203671
0.203144
0.202618
0.202095
0.201574
0.201055
0.200539
0.200024
0.199512
0.199001
0.198493
0.197987
0.197483
0.196981
0.196481
0.195982
0.195486
0.194993
0.194501
0.194011
0.193522
0.193036
0.192552
0.19207
0.19159
0.191112
0.190635
0.190161
0.189688
0.189217
0.188749
0.188282
0.187817
0.187353
0.186892
0.186432
0.185974
0.185518
0.185064
0.184612
0.184161
0.183712
0.183265
0.182819
0.182376
0.181934
0.181494
0.181055
0.180618
0.180183
0.17975
0.179318
0.178888
0.178459
0.178032
0.177607
0.177183
0.176762
0.176341
0.175922
0.175505
0.17509
0.174676
0.174263
0.173852
0.173443
0.173035
0.172629
0.172224
0.171821
0.171419
0.171019
0.17062
0.170223
0.169827
0.169433
0.16904
0.168649
0.168259
0.16787
0.167483
0.167098
0.166714
0.166331
0.165949
0.165569
0.165191
0.164814
0.164438
0.164063
0.16369
0.163318
0.162948
0.162579
0.162211
0.161845
0.161479
0.161116
0.160753
0.160392
0.160032
0.159673
0.159316
0.15896
0.158605
0.158252
0.157899
0.157548
0.157198
0.15685
0.156502
0.156156
0.155811
0.155468
0.155125
0.154784
0.154444
0.154105
0.153767
0.15343
0.153095
0.152761
0.152428
0.152096
0.151765
0.151435
0.151107
0.150779
0.150453
0.150128
0.149803
0.14948
0.149159
0.148838
0.148518
0.148199
0.147882
0.147565
0.14725
0.146935
0.146622
0.14631
0.145999
0.145688
0.145379
0.145072
0.144768
0.144476
0.144237
0.214641
0.227086
0.24239
0.259352
0.276822
0.293837
0.309629
0.323787
0.336201
0.346914
0.356048
0.363768
0.370248
0.375654
0.380138
0.383835
0.38686
0.389311
0.391274
0.392818
0.394005
0.394884
0.395498
0.395883
0.396071
0.396087
0.395954
0.395691
0.395314
0.394837
0.394273
0.393632
0.392923
0.392155
0.391334
0.390467
0.389559
0.388614
0.387638
0.386632
0.385602
0.38455
0.383478
0.382389
0.381285
0.380167
0.379038
0.377899
0.376752
0.375596
0.374434
0.373267
0.372096
0.370921
0.369742
0.368562
0.36738
0.366197
0.365013
0.363829
0.362646
0.361463
0.360281
0.359101
0.357922
0.356745
0.355571
0.354398
0.353229
0.352062
0.350898
0.349738
0.34858
0.347427
0.346276
0.345129
0.343986
0.342847
0.341712
0.340581
0.339454
0.338331
0.337212
0.336097
0.334987
0.333881
0.332779
0.331682
0.330589
0.329501
0.328417
0.327337
0.326262
0.325192
0.324126
0.323065
0.322008
0.320955
0.319908
0.318865
0.317826
0.316792
0.315762
0.314738
0.313717
0.312701
0.31169
0.310683
0.309681
0.308683
0.30769
0.306701
0.305716
0.304736
0.303761
0.30279
0.301823
0.300861
0.299903
0.298949
0.298
0.297055
0.296115
0.295179
0.294247
0.293319
0.292396
0.291476
0.290561
0.28965
0.288744
0.287841
0.286943
0.286049
0.285159
0.284272
0.28339
0.282513
0.281639
0.280769
0.279903
0.279041
0.278183
0.277329
0.276478
0.275632
0.27479
0.273951
0.273116
0.272285
0.271458
0.270635
0.269815
0.268999
0.268187
0.267378
0.266574
0.265772
0.264975
0.264181
0.263391
0.262604
0.261821
0.261041
0.260265
0.259493
0.258724
0.257958
0.257196
0.256437
0.255682
0.25493
0.254182
0.253436
0.252695
0.251956
0.251221
0.250489
0.249761
0.249036
0.248314
0.247595
0.246879
0.246167
0.245457
0.244751
0.244048
0.243349
0.242652
0.241958
0.241268
0.24058
0.239896
0.239215
0.238536
0.237861
0.237189
0.236519
0.235853
0.235189
0.234529
0.233871
0.233216
0.232564
0.231915
0.231269
0.230625
0.229985
0.229347
0.228712
0.228079
0.22745
0.226823
0.226199
0.225577
0.224959
0.224343
0.223729
0.223119
0.22251
0.221905
0.221302
0.220702
0.220104
0.219509
0.218916
0.218326
0.217739
0.217154
0.216571
0.215991
0.215413
0.214838
0.214265
0.213695
0.213127
0.212562
0.211998
0.211438
0.210879
0.210323
0.209769
0.209218
0.208669
0.208122
0.207577
0.207035
0.206495
0.205957
0.205422
0.204888
0.204357
0.203828
0.203302
0.202777
0.202255
0.201734
0.201216
0.2007
0.200186
0.199674
0.199165
0.198657
0.198151
0.197648
0.197146
0.196647
0.196149
0.195654
0.19516
0.194669
0.19418
0.193692
0.193206
0.192723
0.192241
0.191761
0.191284
0.190808
0.190334
0.189861
0.189391
0.188923
0.188456
0.187991
0.187528
0.187067
0.186608
0.186151
0.185695
0.185241
0.184789
0.184339
0.18389
0.183443
0.182998
0.182555
0.182113
0.181673
0.181235
0.180798
0.180363
0.17993
0.179498
0.179069
0.17864
0.178214
0.177789
0.177365
0.176943
0.176523
0.176105
0.175688
0.175272
0.174858
0.174446
0.174035
0.173626
0.173219
0.172812
0.172408
0.172005
0.171603
0.171203
0.170804
0.170407
0.170012
0.169617
0.169225
0.168833
0.168444
0.168055
0.167668
0.167283
0.166899
0.166516
0.166134
0.165754
0.165376
0.164999
0.164623
0.164248
0.163875
0.163504
0.163133
0.162764
0.162396
0.16203
0.161665
0.161301
0.160939
0.160577
0.160217
0.159859
0.159501
0.159145
0.15879
0.158437
0.158084
0.157733
0.157384
0.157035
0.156688
0.156341
0.155996
0.155653
0.15531
0.154969
0.154628
0.154289
0.153952
0.153615
0.153279
0.152945
0.152612
0.15228
0.151949
0.151619
0.15129
0.150963
0.150636
0.150311
0.149987
0.149664
0.149342
0.149021
0.148701
0.148382
0.148065
0.147748
0.147432
0.147118
0.146805
0.146492
0.146181
0.145871
0.145562
0.145257
0.144964
0.144723
0.210104
0.215481
0.2225
0.231134
0.241112
0.252032
0.26341
0.274801
0.285865
0.296367
0.306154
0.315146
0.323318
0.330681
0.337269
0.343129
0.348318
0.352891
0.356906
0.360417
0.363473
0.366121
0.368402
0.370355
0.372013
0.373406
0.374563
0.375506
0.376258
0.376838
0.377263
0.377548
0.377707
0.377751
0.377693
0.377541
0.377305
0.376992
0.376609
0.376163
0.37566
0.375104
0.374501
0.373854
0.373167
0.372445
0.371689
0.370904
0.370092
0.369254
0.368394
0.367513
0.366614
0.365697
0.364765
0.363818
0.362859
0.361888
0.360907
0.359916
0.358916
0.357909
0.356896
0.355876
0.35485
0.35382
0.352786
0.351748
0.350708
0.349664
0.348619
0.347572
0.346523
0.345473
0.344423
0.343373
0.342322
0.341272
0.340222
0.339173
0.338124
0.337077
0.336031
0.334987
0.333944
0.332903
0.331865
0.330828
0.329793
0.328761
0.327731
0.326704
0.32568
0.324658
0.323639
0.322623
0.32161
0.320599
0.319592
0.318589
0.317588
0.316591
0.315597
0.314606
0.313619
0.312635
0.311655
0.310678
0.309704
0.308734
0.307768
0.306805
0.305846
0.304891
0.303939
0.302991
0.302046
0.301106
0.300169
0.299235
0.298305
0.297379
0.296457
0.295538
0.294624
0.293712
0.292805
0.291901
0.291001
0.290105
0.289212
0.288323
0.287438
0.286557
0.285679
0.284805
0.283934
0.283067
0.282204
0.281345
0.280489
0.279637
0.278788
0.277943
0.277102
0.276264
0.27543
0.2746
0.273773
0.272949
0.272129
0.271313
0.2705
0.269691
0.268885
0.268082
0.267283
0.266488
0.265696
0.264907
0.264122
0.26334
0.262562
0.261787
0.261015
0.260247
0.259482
0.258721
0.257962
0.257207
0.256456
0.255707
0.254962
0.25422
0.253481
0.252745
0.252013
0.251284
0.250558
0.249835
0.249115
0.248399
0.247685
0.246975
0.246268
0.245563
0.244862
0.244164
0.243469
0.242777
0.242088
0.241402
0.240718
0.240038
0.239361
0.238687
0.238015
0.237347
0.236681
0.236018
0.235358
0.234701
0.234047
0.233396
0.232747
0.232101
0.231458
0.230818
0.23018
0.229545
0.228913
0.228284
0.227657
0.227033
0.226411
0.225793
0.225177
0.224563
0.223952
0.223344
0.222738
0.222135
0.221534
0.220936
0.220341
0.219748
0.219157
0.218569
0.217984
0.217401
0.21682
0.216242
0.215666
0.215093
0.214522
0.213953
0.213387
0.212823
0.212261
0.211702
0.211145
0.210591
0.210039
0.209489
0.208941
0.208395
0.207852
0.207311
0.206773
0.206236
0.205702
0.20517
0.20464
0.204112
0.203586
0.203063
0.202541
0.202022
0.201505
0.20099
0.200477
0.199966
0.199457
0.198951
0.198446
0.197943
0.197443
0.196944
0.196447
0.195953
0.19546
0.194969
0.194481
0.193994
0.193509
0.193026
0.192545
0.192066
0.191589
0.191113
0.19064
0.190168
0.189699
0.189231
0.188765
0.1883
0.187838
0.187377
0.186919
0.186462
0.186006
0.185553
0.185101
0.184651
0.184203
0.183756
0.183312
0.182869
0.182427
0.181988
0.18155
0.181113
0.180679
0.180246
0.179814
0.179385
0.178957
0.17853
0.178106
0.177682
0.177261
0.176841
0.176422
0.176006
0.17559
0.175177
0.174764
0.174354
0.173945
0.173537
0.173131
0.172727
0.172324
0.171922
0.171522
0.171124
0.170726
0.170331
0.169937
0.169544
0.169153
0.168763
0.168374
0.167987
0.167602
0.167218
0.166835
0.166454
0.166074
0.165695
0.165318
0.164942
0.164567
0.164194
0.163822
0.163452
0.163083
0.162715
0.162348
0.161983
0.161619
0.161256
0.160895
0.160535
0.160176
0.159819
0.159463
0.159108
0.158754
0.158401
0.15805
0.1577
0.157351
0.157004
0.156657
0.156312
0.155968
0.155625
0.155284
0.154943
0.154604
0.154266
0.153929
0.153593
0.153259
0.152925
0.152593
0.152262
0.151932
0.151603
0.151275
0.150949
0.150623
0.150299
0.149975
0.149653
0.149332
0.149012
0.148693
0.148375
0.148058
0.147742
0.147427
0.147113
0.146801
0.146489
0.146179
0.145873
0.145579
0.145337
0.208358
0.2109
0.214191
0.218358
0.223454
0.229447
0.236207
0.243547
0.251262
0.259159
0.267066
0.274837
0.282363
0.289561
0.296377
0.302777
0.308746
0.314278
0.319382
0.32407
0.32836
0.332271
0.335826
0.339046
0.341955
0.344574
0.346923
0.349022
0.350891
0.352547
0.354005
0.355281
0.356389
0.357342
0.358152
0.35883
0.359385
0.359828
0.360167
0.360409
0.360562
0.360632
0.360627
0.36055
0.360408
0.360205
0.359946
0.359635
0.359275
0.35887
0.358424
0.357939
0.357418
0.356863
0.356278
0.355664
0.355022
0.354356
0.353667
0.352957
0.352226
0.351477
0.350711
0.349929
0.349132
0.348322
0.347498
0.346664
0.345818
0.344962
0.344097
0.343224
0.342343
0.341455
0.34056
0.339659
0.338753
0.337842
0.336926
0.336006
0.335083
0.334157
0.333227
0.332296
0.331362
0.330426
0.329488
0.32855
0.32761
0.32667
0.325729
0.324787
0.323846
0.322904
0.321963
0.321022
0.320082
0.319142
0.318204
0.317266
0.31633
0.315395
0.314461
0.313529
0.312598
0.311669
0.310742
0.309817
0.308894
0.307972
0.307053
0.306136
0.305222
0.30431
0.3034
0.302492
0.301587
0.300685
0.299785
0.298887
0.297993
0.297101
0.296212
0.295325
0.294442
0.293561
0.292683
0.291808
0.290936
0.290067
0.2892
0.288337
0.287477
0.286619
0.285765
0.284914
0.284066
0.283221
0.282379
0.28154
0.280704
0.279871
0.279041
0.278214
0.277391
0.276571
0.275753
0.274939
0.274128
0.27332
0.272515
0.271713
0.270915
0.270119
0.269327
0.268538
0.267752
0.266969
0.266189
0.265412
0.264638
0.263867
0.2631
0.262335
0.261574
0.260816
0.26006
0.259308
0.258559
0.257813
0.25707
0.25633
0.255593
0.254859
0.254128
0.2534
0.252674
0.251952
0.251233
0.250517
0.249804
0.249094
0.248386
0.247682
0.24698
0.246282
0.245586
0.244893
0.244203
0.243516
0.242832
0.24215
0.241472
0.240796
0.240123
0.239453
0.238785
0.238121
0.237459
0.2368
0.236143
0.23549
0.234839
0.234191
0.233545
0.232902
0.232262
0.231624
0.23099
0.230357
0.229728
0.229101
0.228476
0.227854
0.227235
0.226619
0.226004
0.225393
0.224784
0.224177
0.223573
0.222972
0.222373
0.221776
0.221182
0.22059
0.220001
0.219414
0.21883
0.218248
0.217669
0.217091
0.216516
0.215944
0.215374
0.214806
0.214241
0.213677
0.213117
0.212558
0.212002
0.211448
0.210896
0.210346
0.209799
0.209254
0.208711
0.20817
0.207632
0.207095
0.206561
0.206029
0.205499
0.204972
0.204446
0.203923
0.203401
0.202882
0.202365
0.201849
0.201336
0.200825
0.200316
0.199809
0.199304
0.198801
0.1983
0.197801
0.197304
0.196809
0.196316
0.195825
0.195336
0.194848
0.194363
0.193879
0.193398
0.192918
0.19244
0.191964
0.19149
0.191018
0.190548
0.190079
0.189612
0.189147
0.188684
0.188223
0.187763
0.187305
0.186849
0.186395
0.185942
0.185492
0.185042
0.184595
0.184149
0.183705
0.183263
0.182823
0.182384
0.181946
0.181511
0.181077
0.180645
0.180214
0.179785
0.179357
0.178932
0.178507
0.178085
0.177664
0.177244
0.176826
0.17641
0.175995
0.175582
0.17517
0.17476
0.174351
0.173944
0.173538
0.173134
0.172731
0.17233
0.171931
0.171532
0.171135
0.17074
0.170346
0.169954
0.169563
0.169173
0.168785
0.168398
0.168013
0.167629
0.167246
0.166865
0.166485
0.166107
0.165729
0.165354
0.164979
0.164606
0.164234
0.163864
0.163495
0.163127
0.16276
0.162395
0.162031
0.161669
0.161307
0.160947
0.160588
0.160231
0.159875
0.15952
0.159166
0.158813
0.158462
0.158112
0.157763
0.157415
0.157069
0.156723
0.156379
0.156036
0.155695
0.155354
0.155015
0.154677
0.15434
0.154004
0.153669
0.153335
0.153003
0.152671
0.152341
0.152012
0.151684
0.151357
0.151031
0.150707
0.150383
0.150061
0.149739
0.149419
0.1491
0.148781
0.148464
0.148148
0.147833
0.147519
0.147206
0.146895
0.146587
0.146292
0.146049
0.207572
0.208875
0.210512
0.212559
0.215095
0.218178
0.221822
0.225997
0.230647
0.235691
0.241041
0.246602
0.252284
0.258004
0.26369
0.269282
0.27473
0.279998
0.285055
0.289883
0.294469
0.298805
0.302888
0.306721
0.310306
0.313651
0.316762
0.319649
0.322321
0.324787
0.327057
0.329143
0.331052
0.332796
0.334382
0.335821
0.33712
0.338288
0.339333
0.340262
0.341081
0.341798
0.342418
0.342947
0.343391
0.343755
0.344044
0.344262
0.344414
0.344503
0.344533
0.344508
0.344432
0.344306
0.344134
0.343919
0.343664
0.34337
0.34304
0.342676
0.34228
0.341855
0.341401
0.34092
0.340415
0.339886
0.339334
0.338762
0.338171
0.337561
0.336933
0.33629
0.335631
0.334958
0.334271
0.333571
0.33286
0.332137
0.331404
0.330661
0.32991
0.329149
0.32838
0.327605
0.326822
0.326032
0.325237
0.324436
0.323629
0.322819
0.322003
0.321184
0.32036
0.319534
0.318704
0.317872
0.317037
0.316199
0.31536
0.314519
0.313676
0.312832
0.311986
0.31114
0.310293
0.309445
0.308597
0.307749
0.3069
0.306052
0.305203
0.304355
0.303508
0.30266
0.301814
0.300968
0.300123
0.299279
0.298436
0.297594
0.296754
0.295914
0.295076
0.29424
0.293405
0.292572
0.29174
0.29091
0.290081
0.289255
0.28843
0.287608
0.286787
0.285968
0.285152
0.284337
0.283524
0.282714
0.281906
0.2811
0.280297
0.279495
0.278696
0.2779
0.277106
0.276314
0.275524
0.274737
0.273953
0.273171
0.272391
0.271614
0.27084
0.270068
0.269298
0.268531
0.267767
0.267005
0.266246
0.26549
0.264736
0.263985
0.263236
0.26249
0.261747
0.261006
0.260268
0.259532
0.2588
0.258069
0.257342
0.256617
0.255895
0.255175
0.254459
0.253744
0.253033
0.252324
0.251618
0.250914
0.250213
0.249515
0.248819
0.248127
0.247436
0.246749
0.246063
0.245381
0.244701
0.244024
0.24335
0.242678
0.242008
0.241342
0.240677
0.240016
0.239357
0.2387
0.238047
0.237395
0.236746
0.2361
0.235457
0.234815
0.234177
0.233541
0.232907
0.232276
0.231647
0.231021
0.230398
0.229777
0.229158
0.228542
0.227928
0.227316
0.226707
0.226101
0.225497
0.224895
0.224296
0.223699
0.223104
0.222512
0.221922
0.221334
0.220749
0.220166
0.219585
0.219007
0.218431
0.217857
0.217286
0.216717
0.21615
0.215585
0.215023
0.214462
0.213904
0.213349
0.212795
0.212244
0.211694
0.211147
0.210602
0.21006
0.209519
0.20898
0.208444
0.20791
0.207378
0.206847
0.206319
0.205793
0.20527
0.204748
0.204228
0.20371
0.203194
0.202681
0.202169
0.201659
0.201152
0.200646
0.200142
0.19964
0.19914
0.198642
0.198146
0.197652
0.19716
0.19667
0.196181
0.195695
0.19521
0.194727
0.194246
0.193767
0.19329
0.192815
0.192341
0.191869
0.191399
0.190931
0.190465
0.19
0.189537
0.189076
0.188617
0.188159
0.187703
0.187249
0.186797
0.186346
0.185897
0.18545
0.185004
0.18456
0.184118
0.183677
0.183238
0.182801
0.182365
0.181931
0.181498
0.181068
0.180638
0.180211
0.179784
0.17936
0.178937
0.178516
0.178096
0.177677
0.177261
0.176846
0.176432
0.17602
0.175609
0.1752
0.174792
0.174386
0.173981
0.173578
0.173176
0.172776
0.172377
0.17198
0.171584
0.171189
0.170796
0.170404
0.170014
0.169625
0.169238
0.168852
0.168467
0.168084
0.167702
0.167321
0.166942
0.166564
0.166187
0.165812
0.165438
0.165066
0.164694
0.164324
0.163956
0.163588
0.163222
0.162857
0.162494
0.162132
0.161771
0.161411
0.161052
0.160695
0.160339
0.159985
0.159631
0.159279
0.158928
0.158578
0.158229
0.157882
0.157535
0.15719
0.156846
0.156504
0.156162
0.155822
0.155482
0.155144
0.154807
0.154472
0.154137
0.153803
0.153471
0.15314
0.15281
0.15248
0.152152
0.151826
0.1515
0.151175
0.150852
0.150529
0.150208
0.149887
0.149568
0.14925
0.148932
0.148616
0.148301
0.147987
0.147675
0.147366
0.147069
0.146826
0.207161
0.207854
0.208705
0.209746
0.211023
0.212585
0.21447
0.216696
0.21927
0.222181
0.225407
0.228913
0.232657
0.236594
0.240676
0.244857
0.249093
0.253344
0.257574
0.261753
0.265855
0.269857
0.273743
0.2775
0.281115
0.284583
0.287899
0.29106
0.294064
0.296912
0.299607
0.302149
0.304544
0.306794
0.308903
0.310878
0.312721
0.314438
0.316034
0.317514
0.318882
0.320144
0.321305
0.322368
0.323338
0.32422
0.325018
0.325735
0.326376
0.326944
0.327443
0.327876
0.328246
0.328557
0.328811
0.329011
0.32916
0.32926
0.329314
0.329324
0.329292
0.32922
0.329111
0.328965
0.328786
0.328573
0.32833
0.328058
0.327758
0.327431
0.32708
0.326704
0.326306
0.325886
0.325445
0.324985
0.324507
0.324011
0.323498
0.32297
0.322427
0.321869
0.321298
0.320714
0.320118
0.31951
0.318891
0.318263
0.317624
0.316976
0.316319
0.315655
0.314982
0.314302
0.313615
0.312921
0.312222
0.311516
0.310805
0.310089
0.309369
0.308643
0.307914
0.307181
0.306444
0.305703
0.30496
0.304213
0.303464
0.302713
0.301959
0.301203
0.300446
0.299686
0.298925
0.298163
0.2974
0.296636
0.29587
0.295104
0.294338
0.293571
0.292803
0.292036
0.291268
0.2905
0.289733
0.288965
0.288198
0.287431
0.286665
0.2859
0.285135
0.28437
0.283607
0.282844
0.282083
0.281322
0.280562
0.279804
0.279047
0.278291
0.277536
0.276783
0.276031
0.275281
0.274532
0.273784
0.273039
0.272295
0.271552
0.270811
0.270072
0.269335
0.268599
0.267866
0.267134
0.266404
0.265676
0.26495
0.264226
0.263503
0.262783
0.262065
0.261349
0.260635
0.259923
0.259213
0.258506
0.2578
0.257096
0.256395
0.255696
0.254999
0.254304
0.253612
0.252921
0.252233
0.251547
0.250863
0.250182
0.249503
0.248826
0.248151
0.247479
0.246809
0.246141
0.245475
0.244812
0.244151
0.243492
0.242835
0.242181
0.241529
0.24088
0.240232
0.239587
0.238945
0.238304
0.237666
0.23703
0.236396
0.235765
0.235136
0.234509
0.233885
0.233262
0.232642
0.232025
0.231409
0.230796
0.230185
0.229576
0.22897
0.228366
0.227764
0.227164
0.226567
0.225971
0.225378
0.224787
0.224199
0.223612
0.223028
0.222446
0.221866
0.221288
0.220713
0.220139
0.219568
0.218999
0.218432
0.217867
0.217304
0.216744
0.216185
0.215629
0.215075
0.214522
0.213972
0.213424
0.212878
0.212334
0.211793
0.211253
0.210715
0.210179
0.209646
0.209114
0.208584
0.208057
0.207531
0.207007
0.206485
0.205966
0.205448
0.204932
0.204418
0.203906
0.203396
0.202888
0.202382
0.201877
0.201375
0.200874
0.200376
0.199879
0.199384
0.198891
0.1984
0.19791
0.197423
0.196937
0.196453
0.195971
0.195491
0.195012
0.194536
0.194061
0.193588
0.193116
0.192647
0.192179
0.191713
0.191248
0.190785
0.190324
0.189865
0.189408
0.188952
0.188497
0.188045
0.187594
0.187145
0.186697
0.186251
0.185807
0.185364
0.184923
0.184484
0.184046
0.18361
0.183176
0.182743
0.182311
0.181881
0.181453
0.181026
0.180601
0.180177
0.179755
0.179335
0.178916
0.178498
0.178082
0.177667
0.177254
0.176843
0.176433
0.176024
0.175617
0.175211
0.174807
0.174404
0.174003
0.173603
0.173205
0.172808
0.172412
0.172018
0.171625
0.171233
0.170843
0.170454
0.170067
0.169681
0.169297
0.168913
0.168531
0.168151
0.167772
0.167394
0.167017
0.166642
0.166268
0.165895
0.165524
0.165154
0.164785
0.164417
0.164051
0.163686
0.163322
0.16296
0.162599
0.162239
0.16188
0.161522
0.161166
0.160811
0.160457
0.160105
0.159753
0.159403
0.159054
0.158706
0.158359
0.158014
0.157669
0.157326
0.156984
0.156643
0.156304
0.155965
0.155628
0.155291
0.154956
0.154622
0.154289
0.153957
0.153626
0.153297
0.152968
0.152641
0.152314
0.151989
0.151665
0.151341
0.151019
0.150698
0.150378
0.150059
0.149741
0.149425
0.149109
0.148794
0.148481
0.148171
0.147874
0.14763
0.206917
0.20727
0.207705
0.208235
0.208879
0.209666
0.210621
0.211767
0.213122
0.214699
0.2165
0.218526
0.220767
0.223209
0.225833
0.228617
0.231537
0.234567
0.237681
0.240856
0.244067
0.247292
0.250513
0.25371
0.256869
0.259976
0.26302
0.265989
0.268878
0.271679
0.274387
0.276998
0.279511
0.281923
0.284233
0.28644
0.288547
0.290553
0.292459
0.294268
0.295981
0.2976
0.299128
0.300567
0.301919
0.303188
0.304376
0.305485
0.306518
0.307479
0.308368
0.30919
0.309946
0.310639
0.311271
0.311845
0.312363
0.312827
0.31324
0.313603
0.313918
0.314187
0.314413
0.314597
0.31474
0.314845
0.314912
0.314944
0.314942
0.314908