/*--------------------------------*- C++ -*----------------------------------*\
| =========                 |                                                 |
| \\      /  F ield         | OpenFOAM: The Open Source CFD Toolbox           |
|  \\    /   O peration     | Version:  2506                                  |
|   \\  /    A nd           | Website:  www.openfoam.com                      |
|    \\/     M anipulation  |                                                 |
\*---------------------------------------------------------------------------*/
FoamFile
{
    version     2.0;
    format      ascii;
    arch        "LSB;label=32;scalar=64";
    class       volScalarField;
    location    "900";
    object      k;
}
// * * * * * * * * * * * * * * * * * * * * * * * * * * * * * * * * * * * * * //

dimensions      [0 2 -2 0 0 0 0];

internalField   nonuniform List<scalar> 
131949
(
0.559553
0.61061
0.612364
0.607642
0.603742
0.600655
0.598026
0.595766
0.593798
0.592038
0.590428
0.588932
0.587522
0.58618
0.584892
0.583647
0.582437
0.581256
0.5801
0.578964
0.577846
0.576744
0.575655
0.574578
0.573511
0.572454
0.571406
0.570365
0.569331
0.568304
0.567283
0.566268
0.565258
0.564253
0.563253
0.562257
0.561266
0.560279
0.559296
0.558317
0.557341
0.55637
0.555402
0.554437
0.553476
0.552519
0.551564
0.550613
0.549665
0.54872
0.547779
0.54684
0.545905
0.544972
0.544043
0.543116
0.542193
0.541272
0.540354
0.539439
0.538527
0.537618
0.536712
0.535808
0.534907
0.534009
0.533114
0.532222
0.531332
0.530445
0.529561
0.528679
0.5278
0.526924
0.526051
0.52518
0.524311
0.523446
0.522583
0.521723
0.520865
0.52001
0.519158
0.518308
0.51746
0.516616
0.515773
0.514934
0.514097
0.513262
0.51243
0.511601
0.510774
0.509949
0.509127
0.508308
0.507491
0.506677
0.505865
0.505055
0.504248
0.503443
0.502641
0.501841
0.501044
0.500249
0.499456
0.498666
0.497878
0.497093
0.49631
0.495529
0.49475
0.493974
0.493201
0.49243
0.491661
0.490894
0.490129
0.489367
0.488608
0.48785
0.487095
0.486342
0.485591
0.484843
0.484097
0.483353
0.482611
0.481872
0.481135
0.4804
0.479667
0.478936
0.478208
0.477482
0.476758
0.476036
0.475316
0.474598
0.473883
0.47317
0.472459
0.47175
0.471043
0.470338
0.469635
0.468935
0.468236
0.46754
0.466846
0.466153
0.465463
0.464775
0.464089
0.463405
0.462723
0.462043
0.461365
0.460689
0.460015
0.459344
0.458674
0.458006
0.45734
0.456676
0.456014
0.455354
0.454696
0.45404
0.453386
0.452734
0.452083
0.451435
0.450789
0.450144
0.449502
0.448861
0.448222
0.447585
0.44695
0.446317
0.445686
0.445056
0.444429
0.443803
0.443179
0.442557
0.441937
0.441319
0.440702
0.440088
0.439475
0.438864
0.438254
0.437647
0.437041
0.436437
0.435835
0.435235
0.434636
0.434039
0.433444
0.432851
0.432259
0.431669
0.431081
0.430494
0.42991
0.429327
0.428745
0.428166
0.427588
0.427011
0.426437
0.425864
0.425292
0.424723
0.424155
0.423588
0.423024
0.422461
0.421899
0.421339
0.420781
0.420224
0.419669
0.419116
0.418564
0.418014
0.417465
0.416918
0.416373
0.415829
0.415286
0.414745
0.414206
0.413668
0.413132
0.412597
0.412064
0.411532
0.411002
0.410473
0.409946
0.40942
0.408896
0.408373
0.407852
0.407332
0.406814
0.406297
0.405781
0.405267
0.404755
0.404243
0.403734
0.403225
0.402718
0.402213
0.401709
0.401206
0.400705
0.400205
0.399706
0.399209
0.398713
0.398218
0.397725
0.397234
0.396743
0.396254
0.395766
0.39528
0.394795
0.394311
0.393828
0.393347
0.392867
0.392389
0.391911
0.391435
0.39096
0.390487
0.390015
0.389544
0.389074
0.388606
0.388138
0.387672
0.387208
0.386744
0.386282
0.385821
0.385361
0.384902
0.384445
0.383989
0.383534
0.38308
0.382627
0.382176
0.381726
0.381277
0.380829
0.380382
0.379936
0.379492
0.379048
0.378606
0.378165
0.377725
0.377286
0.376849
0.376412
0.375977
0.375542
0.375109
0.374677
0.374246
0.373816
0.373387
0.37296
0.372533
0.372107
0.371683
0.371259
0.370837
0.370415
0.369995
0.369576
0.369157
0.36874
0.368324
0.367909
0.367495
0.367082
0.366669
0.366258
0.365848
0.365439
0.365031
0.364624
0.364218
0.363812
0.363408
0.363005
0.362603
0.362202
0.361801
0.361402
0.361003
0.360606
0.360209
0.359814
0.359419
0.359025
0.358633
0.358241
0.35785
0.35746
0.35707
0.356682
0.356295
0.355908
0.355523
0.355138
0.354754
0.354371
0.353989
0.353608
0.353228
0.352848
0.35247
0.352092
0.351715
0.351339
0.350964
0.350589
0.350216
0.349843
0.349471
0.3491
0.348729
0.34836
0.347991
0.347623
0.347256
0.34689
0.346525
0.34616
0.345796
0.345433
0.34507
0.344709
0.344349
0.34399
0.343637
0.343304
0.343041
0.437505
0.49331
0.531808
0.554333
0.5678
0.575801
0.5803
0.582718
0.583927
0.584399
0.584403
0.584105
0.583608
0.582975
0.582247
0.581452
0.580608
0.579729
0.578824
0.5779
0.576961
0.576011
0.575053
0.574089
0.573121
0.57215
0.571177
0.570202
0.569227
0.568252
0.567278
0.566304
0.565331
0.564359
0.563389
0.562421
0.561454
0.560489
0.559526
0.558565
0.557607
0.55665
0.555696
0.554744
0.553795
0.552847
0.551903
0.55096
0.550021
0.549083
0.548148
0.547216
0.546286
0.545359
0.544435
0.543512
0.542593
0.541676
0.540762
0.53985
0.538941
0.538034
0.53713
0.536229
0.53533
0.534434
0.53354
0.532649
0.53176
0.530875
0.529991
0.529111
0.528232
0.527357
0.526484
0.525614
0.524746
0.52388
0.523018
0.522158
0.5213
0.520445
0.519592
0.518742
0.517895
0.51705
0.516207
0.515368
0.51453
0.513695
0.512863
0.512033
0.511205
0.51038
0.509558
0.508738
0.50792
0.507105
0.506292
0.505482
0.504674
0.503869
0.503066
0.502265
0.501467
0.500671
0.499878
0.499087
0.498298
0.497512
0.496728
0.495946
0.495167
0.49439
0.493616
0.492844
0.492074
0.491306
0.490541
0.489778
0.489017
0.488259
0.487503
0.486749
0.485997
0.485248
0.484501
0.483756
0.483013
0.482273
0.481535
0.480799
0.480065
0.479333
0.478604
0.477877
0.477152
0.476429
0.475708
0.47499
0.474273
0.473559
0.472847
0.472137
0.471429
0.470723
0.47002
0.469318
0.468619
0.467921
0.467226
0.466533
0.465842
0.465153
0.464466
0.463781
0.463098
0.462417
0.461738
0.461061
0.460386
0.459714
0.459043
0.458374
0.457707
0.457042
0.456379
0.455718
0.455059
0.454402
0.453747
0.453094
0.452443
0.451794
0.451147
0.450501
0.449858
0.449216
0.448577
0.447939
0.447303
0.446669
0.446037
0.445406
0.444778
0.444151
0.443527
0.442904
0.442283
0.441664
0.441046
0.440431
0.439817
0.439205
0.438595
0.437987
0.43738
0.436775
0.436173
0.435571
0.434972
0.434374
0.433778
0.433184
0.432592
0.432001
0.431412
0.430825
0.430239
0.429655
0.429073
0.428493
0.427914
0.427337
0.426762
0.426188
0.425616
0.425045
0.424477
0.42391
0.423344
0.42278
0.422218
0.421658
0.421099
0.420541
0.419986
0.419431
0.418879
0.418328
0.417779
0.417231
0.416685
0.41614
0.415597
0.415055
0.414515
0.413977
0.41344
0.412904
0.41237
0.411838
0.411307
0.410778
0.41025
0.409724
0.409199
0.408675
0.408153
0.407633
0.407114
0.406596
0.40608
0.405565
0.405052
0.40454
0.40403
0.403521
0.403013
0.402507
0.402002
0.401499
0.400997
0.400496
0.399997
0.399499
0.399003
0.398508
0.398014
0.397522
0.397031
0.396541
0.396053
0.395566
0.39508
0.394595
0.394112
0.393631
0.39315
0.392671
0.392193
0.391716
0.391241
0.390767
0.390294
0.389823
0.389352
0.388883
0.388416
0.387949
0.387484
0.38702
0.386557
0.386095
0.385635
0.385176
0.384718
0.384261
0.383806
0.383351
0.382898
0.382446
0.381995
0.381546
0.381097
0.38065
0.380204
0.379759
0.379315
0.378872
0.378431
0.37799
0.377551
0.377113
0.376676
0.37624
0.375805
0.375371
0.374939
0.374507
0.374077
0.373647
0.373219
0.372792
0.372366
0.371941
0.371517
0.371094
0.370672
0.370251
0.369831
0.369413
0.368995
0.368578
0.368163
0.367748
0.367334
0.366922
0.36651
0.3661
0.36569
0.365281
0.364874
0.364467
0.364062
0.363657
0.363253
0.362851
0.362449
0.362048
0.361648
0.361249
0.360851
0.360454
0.360058
0.359663
0.359269
0.358876
0.358484
0.358092
0.357702
0.357312
0.356923
0.356535
0.356149
0.355763
0.355377
0.354993
0.35461
0.354227
0.353846
0.353465
0.353085
0.352706
0.352328
0.35195
0.351574
0.351198
0.350823
0.350449
0.350076
0.349704
0.349332
0.348962
0.348592
0.348223
0.347854
0.347487
0.34712
0.346754
0.346389
0.346025
0.345661
0.345299
0.344937
0.344576
0.344217
0.343864
0.34353
0.343267
0.398944
0.430837
0.461659
0.487593
0.508599
0.525145
0.537752
0.5472
0.554254
0.559504
0.563394
0.566258
0.568347
0.569842
0.570879
0.571558
0.571957
0.572131
0.572126
0.571975
0.571705
0.571337
0.570888
0.570371
0.569797
0.569176
0.568514
0.567818
0.567092
0.566341
0.565569
0.564778
0.563971
0.56315
0.562318
0.561475
0.560623
0.559763
0.558897
0.558026
0.557149
0.556269
0.555385
0.554498
0.553609
0.552718
0.551826
0.550932
0.550037
0.549142
0.548247
0.547351
0.546456
0.545561
0.544667
0.543773
0.54288
0.541988
0.541098
0.540208
0.539319
0.538432
0.537547
0.536663
0.53578
0.5349
0.534021
0.533143
0.532268
0.531394
0.530522
0.529653
0.528785
0.527919
0.527055
0.526194
0.525334
0.524477
0.523621
0.522768
0.521917
0.521068
0.520221
0.519377
0.518535
0.517695
0.516857
0.516021
0.515188
0.514357
0.513528
0.512702
0.511877
0.511055
0.510236
0.509418
0.508603
0.50779
0.50698
0.506172
0.505366
0.504562
0.503761
0.502962
0.502165
0.50137
0.500578
0.499788
0.499
0.498215
0.497432
0.496651
0.495872
0.495096
0.494322
0.49355
0.49278
0.492013
0.491248
0.490485
0.489724
0.488966
0.48821
0.487456
0.486704
0.485954
0.485207
0.484462
0.483719
0.482978
0.482239
0.481503
0.480768
0.480036
0.479306
0.478579
0.477853
0.477129
0.476408
0.475689
0.474972
0.474257
0.473544
0.472833
0.472124
0.471418
0.470713
0.470011
0.46931
0.468612
0.467916
0.467222
0.466529
0.465839
0.465151
0.464465
0.463781
0.463099
0.462419
0.461742
0.461066
0.460392
0.45972
0.45905
0.458382
0.457716
0.457052
0.45639
0.45573
0.455071
0.454415
0.453761
0.453109
0.452458
0.45181
0.451163
0.450518
0.449876
0.449235
0.448596
0.447959
0.447324
0.44669
0.446059
0.445429
0.444801
0.444175
0.443551
0.442929
0.442309
0.44169
0.441073
0.440458
0.439845
0.439234
0.438624
0.438017
0.437411
0.436807
0.436204
0.435604
0.435005
0.434407
0.433812
0.433218
0.432627
0.432036
0.431448
0.430861
0.430276
0.429693
0.429111
0.428531
0.427953
0.427376
0.426802
0.426228
0.425657
0.425087
0.424519
0.423952
0.423387
0.422824
0.422262
0.421702
0.421143
0.420586
0.420031
0.419477
0.418925
0.418375
0.417826
0.417279
0.416733
0.416188
0.415646
0.415105
0.414565
0.414027
0.41349
0.412955
0.412422
0.41189
0.411359
0.41083
0.410303
0.409777
0.409252
0.408729
0.408208
0.407688
0.407169
0.406652
0.406136
0.405622
0.405109
0.404597
0.404087
0.403579
0.403072
0.402566
0.402061
0.401558
0.401057
0.400556
0.400058
0.39956
0.399064
0.398569
0.398076
0.397584
0.397093
0.396604
0.396115
0.395629
0.395143
0.394659
0.394176
0.393695
0.393215
0.392736
0.392258
0.391782
0.391307
0.390833
0.390361
0.389889
0.38942
0.388951
0.388483
0.388017
0.387552
0.387088
0.386626
0.386164
0.385704
0.385245
0.384788
0.384331
0.383876
0.383422
0.382969
0.382517
0.382067
0.381617
0.381169
0.380722
0.380276
0.379831
0.379388
0.378945
0.378504
0.378064
0.377625
0.377187
0.37675
0.376314
0.375879
0.375446
0.375013
0.374582
0.374152
0.373723
0.373295
0.372868
0.372442
0.372017
0.371593
0.37117
0.370749
0.370328
0.369908
0.36949
0.369072
0.368656
0.36824
0.367826
0.367412
0.367
0.366589
0.366178
0.365769
0.36536
0.364953
0.364546
0.364141
0.363736
0.363333
0.36293
0.362529
0.362128
0.361728
0.36133
0.360932
0.360535
0.360139
0.359744
0.35935
0.358957
0.358565
0.358173
0.357783
0.357393
0.357005
0.356617
0.35623
0.355844
0.355459
0.355075
0.354692
0.35431
0.353928
0.353547
0.353168
0.352789
0.35241
0.352033
0.351657
0.351281
0.350906
0.350532
0.350159
0.349787
0.349416
0.349045
0.348675
0.348306
0.347938
0.34757
0.347204
0.346838
0.346473
0.346109
0.345745
0.345383
0.345021
0.344662
0.344308
0.343973
0.343709
0.384717
0.399671
0.417137
0.435562
0.453685
0.470605
0.485714
0.498801
0.509935
0.519299
0.527113
0.5336
0.538969
0.543401
0.547053
0.550052
0.552506
0.554504
0.556117
0.557406
0.55842
0.559199
0.559778
0.560185
0.560444
0.560574
0.560592
0.560514
0.56035
0.560111
0.559807
0.559445
0.559031
0.558572
0.558073
0.557537
0.55697
0.556374
0.555752
0.555107
0.554441
0.553757
0.553056
0.55234
0.551611
0.55087
0.550117
0.549355
0.548584
0.547805
0.547019
0.546226
0.545428
0.544625
0.543817
0.543005
0.542189
0.54137
0.540548
0.539724
0.538898
0.53807
0.53724
0.536409
0.535577
0.534745
0.533911
0.533077
0.532243
0.531409
0.530575
0.529741
0.528908
0.528075
0.527242
0.52641
0.525579
0.524749
0.52392
0.523091
0.522264
0.521438
0.520613
0.519789
0.518967
0.518146
0.517327
0.516509
0.515692
0.514878
0.514064
0.513253
0.512443
0.511634
0.510828
0.510023
0.50922
0.508419
0.507619
0.506822
0.506026
0.505232
0.50444
0.50365
0.502862
0.502076
0.501291
0.500509
0.499729
0.49895
0.498174
0.497399
0.496627
0.495857
0.495088
0.494322
0.493557
0.492795
0.492035
0.491276
0.49052
0.489766
0.489014
0.488264
0.487516
0.48677
0.486026
0.485284
0.484544
0.483806
0.48307
0.482336
0.481604
0.480875
0.480147
0.479421
0.478698
0.477976
0.477257
0.476539
0.475824
0.47511
0.474399
0.473689
0.472982
0.472276
0.471573
0.470872
0.470172
0.469475
0.468779
0.468086
0.467394
0.466705
0.466018
0.465332
0.464649
0.463967
0.463287
0.46261
0.461934
0.46126
0.460588
0.459919
0.459251
0.458585
0.457921
0.457258
0.456598
0.45594
0.455284
0.454629
0.453976
0.453326
0.452677
0.45203
0.451385
0.450742
0.4501
0.449461
0.448823
0.448188
0.447554
0.446922
0.446292
0.445663
0.445037
0.444412
0.443789
0.443168
0.442549
0.441931
0.441315
0.440702
0.440089
0.439479
0.438871
0.438264
0.437659
0.437055
0.436454
0.435854
0.435256
0.43466
0.434065
0.433472
0.432881
0.432292
0.431704
0.431118
0.430534
0.429951
0.42937
0.428791
0.428214
0.427638
0.427064
0.426491
0.42592
0.425351
0.424783
0.424217
0.423653
0.42309
0.422529
0.421969
0.421411
0.420855
0.4203
0.419747
0.419195
0.418645
0.418097
0.41755
0.417005
0.416461
0.415919
0.415378
0.414839
0.414301
0.413765
0.41323
0.412697
0.412166
0.411635
0.411107
0.41058
0.410054
0.40953
0.409007
0.408486
0.407966
0.407448
0.406931
0.406415
0.405901
0.405389
0.404878
0.404368
0.403859
0.403352
0.402847
0.402343
0.40184
0.401339
0.400839
0.40034
0.399843
0.399347
0.398852
0.398359
0.397867
0.397377
0.396887
0.3964
0.395913
0.395428
0.394944
0.394461
0.39398
0.3935
0.393021
0.392544
0.392067
0.391593
0.391119
0.390647
0.390175
0.389706
0.389237
0.38877
0.388303
0.387839
0.387375
0.386912
0.386451
0.385991
0.385532
0.385075
0.384618
0.384163
0.383709
0.383256
0.382805
0.382354
0.381905
0.381456
0.381009
0.380564
0.380119
0.379675
0.379233
0.378791
0.378351
0.377912
0.377474
0.377037
0.376602
0.376167
0.375734
0.375301
0.37487
0.37444
0.37401
0.373582
0.373155
0.372729
0.372305
0.371881
0.371458
0.371036
0.370616
0.370196
0.369777
0.36936
0.368943
0.368528
0.368113
0.3677
0.367287
0.366876
0.366465
0.366056
0.365647
0.36524
0.364833
0.364428
0.364023
0.363619
0.363217
0.362815
0.362414
0.362015
0.361616
0.361218
0.360821
0.360425
0.36003
0.359636
0.359242
0.35885
0.358459
0.358068
0.357678
0.35729
0.356902
0.356515
0.356129
0.355744
0.355359
0.354976
0.354594
0.354212
0.353831
0.353451
0.353072
0.352694
0.352316
0.35194
0.351564
0.351189
0.350815
0.350442
0.350069
0.349698
0.349327
0.348957
0.348588
0.348219
0.347852
0.347485
0.347119
0.346754
0.346389
0.346026
0.345663
0.345303
0.344948
0.344613
0.344348
0.379451
0.386516
0.395429
0.405971
0.417679
0.430003
0.442377
0.454341
0.465594
0.475964
0.485376
0.493821
0.501336
0.507983
0.513836
0.518974
0.523472
0.5274
0.530824
0.533803
0.536387
0.538623
0.540552
0.542208
0.543623
0.544823
0.545832
0.546671
0.547358
0.547909
0.548339
0.548658
0.548879
0.549012
0.549064
0.549043
0.548957
0.548811
0.548611
0.548362
0.548068
0.547732
0.547359
0.546952
0.546514
0.546047
0.545553
0.545035
0.544495
0.543935
0.543356
0.542759
0.542147
0.54152
0.54088
0.540227
0.539562
0.538887
0.538203
0.537509
0.536808
0.536098
0.535382
0.534659
0.53393
0.533196
0.532457
0.531714
0.530966
0.530215
0.52946
0.528702
0.527941
0.527178
0.526412
0.525645
0.524875
0.524104
0.523332
0.522558
0.521784
0.521008
0.520232
0.519455
0.518678
0.517901
0.517123
0.516345
0.515568
0.51479
0.514013
0.513236
0.512459
0.511683
0.510908
0.510133
0.509359
0.508586
0.507814
0.507042
0.506272
0.505503
0.504734
0.503967
0.503201
0.502436
0.501672
0.50091
0.500149
0.499389
0.498631
0.497874
0.497118
0.496364
0.495611
0.49486
0.494111
0.493363
0.492616
0.491871
0.491128
0.490386
0.489646
0.488908
0.488171
0.487436
0.486703
0.485971
0.485242
0.484513
0.483787
0.483062
0.482339
0.481618
0.480899
0.480181
0.479465
0.478751
0.478039
0.477328
0.47662
0.475913
0.475208
0.474504
0.473803
0.473103
0.472405
0.471709
0.471015
0.470323
0.469632
0.468944
0.468257
0.467572
0.466889
0.466207
0.465528
0.46485
0.464174
0.4635
0.462828
0.462158
0.461489
0.460822
0.460157
0.459494
0.458833
0.458173
0.457516
0.45686
0.456206
0.455554
0.454903
0.454255
0.453608
0.452963
0.45232
0.451679
0.451039
0.450401
0.449765
0.449131
0.448499
0.447868
0.447239
0.446612
0.445987
0.445363
0.444741
0.444121
0.443503
0.442886
0.442271
0.441658
0.441047
0.440437
0.43983
0.439223
0.438619
0.438016
0.437415
0.436816
0.436218
0.435622
0.435028
0.434436
0.433845
0.433256
0.432668
0.432082
0.431498
0.430916
0.430335
0.429756
0.429178
0.428602
0.428028
0.427455
0.426884
0.426315
0.425747
0.425181
0.424617
0.424054
0.423492
0.422932
0.422374
0.421818
0.421262
0.420709
0.420157
0.419607
0.419058
0.41851
0.417965
0.41742
0.416878
0.416337
0.415797
0.415259
0.414722
0.414187
0.413653
0.413121
0.41259
0.412061
0.411534
0.411007
0.410482
0.409959
0.409437
0.408917
0.408398
0.40788
0.407364
0.406849
0.406336
0.405824
0.405314
0.404804
0.404297
0.40379
0.403285
0.402782
0.40228
0.401779
0.40128
0.400781
0.400285
0.399789
0.399295
0.398803
0.398311
0.397821
0.397332
0.396845
0.396359
0.395874
0.39539
0.394908
0.394427
0.393948
0.393469
0.392992
0.392516
0.392042
0.391569
0.391097
0.390626
0.390156
0.389688
0.389221
0.388755
0.38829
0.387827
0.387365
0.386904
0.386444
0.385985
0.385528
0.385072
0.384617
0.384163
0.38371
0.383259
0.382808
0.382359
0.381911
0.381464
0.381018
0.380574
0.38013
0.379688
0.379247
0.378807
0.378368
0.37793
0.377493
0.377057
0.376623
0.376189
0.375757
0.375326
0.374896
0.374466
0.374038
0.373611
0.373185
0.372761
0.372337
0.371914
0.371492
0.371072
0.370652
0.370233
0.369816
0.369399
0.368984
0.368569
0.368155
0.367743
0.367331
0.366921
0.366511
0.366103
0.365695
0.365288
0.364883
0.364478
0.364074
0.363672
0.36327
0.362869
0.362469
0.36207
0.361672
0.361275
0.360879
0.360484
0.360089
0.359696
0.359303
0.358912
0.358521
0.358131
0.357743
0.357355
0.356967
0.356581
0.356196
0.355811
0.355428
0.355045
0.354663
0.354282
0.353902
0.353523
0.353144
0.352767
0.35239
0.352014
0.351639
0.351264
0.350891
0.350518
0.350146
0.349775
0.349405
0.349036
0.348667
0.348299
0.347932
0.347566
0.3472
0.346836
0.346472
0.346111
0.345755
0.345419
0.345153
0.377291
0.380856
0.385399
0.391002
0.397648
0.405209
0.41346
0.422132
0.430969
0.43975
0.448301
0.456491
0.464234
0.47148
0.478205
0.484407
0.490096
0.495295
0.50003
0.50433
0.508227
0.51175
0.514931
0.517796
0.520372
0.522685
0.524756
0.526606
0.528254
0.529719
0.531014
0.532155
0.533155
0.534025
0.534776
0.535417
0.535959
0.536408
0.536772
0.537057
0.53727
0.537417
0.537502
0.537529
0.537504
0.53743
0.53731
0.537149
0.536948
0.53671
0.536439
0.536137
0.535805
0.535446
0.535061
0.534652
0.534222
0.53377
0.5333
0.532811
0.532306
0.531784
0.531248
0.530698
0.530136
0.529561
0.528975
0.528378
0.527772
0.527156
0.526532
0.5259
0.52526
0.524613
0.523959
0.5233
0.522634
0.521964
0.521288
0.520608
0.519923
0.519234
0.518542
0.517846
0.517147
0.516445
0.515741
0.515034
0.514324
0.513613
0.512899
0.512184
0.511468
0.510749
0.51003
0.50931
0.508588
0.507866
0.507143
0.506419
0.505695
0.504971
0.504246
0.503521
0.502796
0.502071
0.501346
0.500621
0.499896
0.499171
0.498447
0.497724
0.497
0.496278
0.495555
0.494834
0.494113
0.493393
0.492674
0.491955
0.491238
0.490521
0.489805
0.489091
0.488377
0.487664
0.486953
0.486242
0.485533
0.484825
0.484118
0.483412
0.482707
0.482004
0.481302
0.480601
0.479902
0.479204
0.478508
0.477812
0.477118
0.476426
0.475735
0.475045
0.474357
0.473671
0.472986
0.472302
0.47162
0.470939
0.47026
0.469582
0.468906
0.468232
0.467559
0.466888
0.466218
0.46555
0.464883
0.464218
0.463555
0.462893
0.462233
0.461574
0.460917
0.460262
0.459608
0.458956
0.458305
0.457656
0.457009
0.456363
0.45572
0.455077
0.454437
0.453798
0.45316
0.452524
0.45189
0.451258
0.450627
0.449998
0.449371
0.448745
0.448121
0.447498
0.446877
0.446258
0.44564
0.445024
0.44441
0.443797
0.443186
0.442577
0.441969
0.441363
0.440759
0.440156
0.439554
0.438955
0.438357
0.437761
0.437166
0.436573
0.435981
0.435391
0.434803
0.434216
0.433631
0.433048
0.432466
0.431886
0.431307
0.43073
0.430154
0.429581
0.429008
0.428437
0.427868
0.4273
0.426734
0.42617
0.425607
0.425045
0.424485
0.423927
0.42337
0.422815
0.422261
0.421709
0.421158
0.420609
0.420061
0.419515
0.41897
0.418427
0.417885
0.417345
0.416806
0.416269
0.415733
0.415198
0.414665
0.414134
0.413604
0.413075
0.412548
0.412023
0.411498
0.410975
0.410454
0.409934
0.409415
0.408898
0.408382
0.407868
0.407355
0.406843
0.406333
0.405824
0.405317
0.404811
0.404306
0.403802
0.4033
0.4028
0.4023
0.401802
0.401305
0.40081
0.400316
0.399823
0.399332
0.398842
0.398353
0.397865
0.397379
0.396894
0.39641
0.395928
0.395447
0.394967
0.394489
0.394011
0.393535
0.39306
0.392587
0.392114
0.391643
0.391173
0.390705
0.390237
0.389771
0.389306
0.388842
0.38838
0.387918
0.387458
0.386999
0.386541
0.386084
0.385629
0.385174
0.384721
0.384269
0.383818
0.383369
0.38292
0.382473
0.382026
0.381581
0.381137
0.380694
0.380252
0.379812
0.379372
0.378934
0.378496
0.37806
0.377625
0.377191
0.376758
0.376326
0.375895
0.375465
0.375036
0.374609
0.374182
0.373756
0.373332
0.372908
0.372486
0.372064
0.371644
0.371225
0.370806
0.370389
0.369973
0.369557
0.369143
0.36873
0.368317
0.367906
0.367496
0.367086
0.366678
0.36627
0.365864
0.365458
0.365054
0.36465
0.364248
0.363846
0.363445
0.363046
0.362647
0.362249
0.361852
0.361456
0.36106
0.360666
0.360273
0.35988
0.359489
0.359098
0.358708
0.35832
0.357932
0.357544
0.357158
0.356773
0.356388
0.356005
0.355622
0.35524
0.354859
0.354479
0.354099
0.353721
0.353343
0.352966
0.35259
0.352215
0.351841
0.351467
0.351094
0.350722
0.350351
0.349981
0.349611
0.349242
0.348874
0.348507
0.348141
0.347775
0.347411
0.347049
0.346692
0.346355
0.346088
0.37629
0.378226
0.380644
0.383627
0.387247
0.391536
0.396464
0.401953
0.407893
0.414161
0.420631
0.427184
0.433717
0.440142
0.446391
0.452412
0.458169
0.463638
0.468805
0.473666
0.47822
0.482474
0.486438
0.490121
0.493536
0.496698
0.499619
0.502314
0.504797
0.50708
0.509176
0.511097
0.512854
0.514459
0.515921
0.517249
0.518453
0.519541
0.52052
0.521398
0.522181
0.522876
0.523487
0.524021
0.524483
0.524876
0.525206
0.525476
0.52569
0.525852
0.525964
0.52603
0.526053
0.526035
0.525978
0.525885
0.525758
0.525599
0.52541
0.525192
0.524947
0.524678
0.524384
0.524068
0.523731
0.523373
0.522997
0.522603
0.522192
0.521765
0.521323
0.520866
0.520396
0.519914
0.519419
0.518913
0.518396
0.51787
0.517333
0.516787
0.516233
0.515671
0.515101
0.514523
0.513939
0.513348
0.512752
0.512149
0.511541
0.510928
0.51031
0.509688
0.509061
0.50843
0.507795
0.507157
0.506516
0.505871
0.505223
0.504573
0.50392
0.503265
0.502608
0.501948
0.501287
0.500623
0.499959
0.499292
0.498625
0.497956
0.497286
0.496615
0.495943
0.49527
0.494596
0.493922
0.493247
0.492572
0.491897
0.491221
0.490545
0.489869
0.489193
0.488516
0.48784
0.487164
0.486488
0.485813
0.485137
0.484462
0.483788
0.483113
0.48244
0.481767
0.481094
0.480422
0.479751
0.47908
0.47841
0.477741
0.477072
0.476405
0.475738
0.475072
0.474407
0.473743
0.47308
0.472418
0.471757
0.471097
0.470438
0.46978
0.469123
0.468468
0.467813
0.46716
0.466507
0.465856
0.465206
0.464558
0.46391
0.463264
0.462619
0.461976
0.461333
0.460692
0.460053
0.459414
0.458777
0.458141
0.457507
0.456874
0.456242
0.455612
0.454983
0.454356
0.45373
0.453105
0.452482
0.45186
0.451239
0.45062
0.450003
0.449386
0.448772
0.448158
0.447547
0.446936
0.446327
0.44572
0.445114
0.44451
0.443907
0.443305
0.442705
0.442106
0.441509
0.440913
0.440319
0.439727
0.439135
0.438546
0.437957
0.437371
0.436785
0.436201
0.435619
0.435038
0.434459
0.433881
0.433305
0.43273
0.432156
0.431584
0.431014
0.430445
0.429877
0.429311
0.428746
0.428183
0.427622
0.427061
0.426502
0.425945
0.425389
0.424835
0.424282
0.42373
0.42318
0.422632
0.422084
0.421539
0.420994
0.420451
0.41991
0.41937
0.418831
0.418294
0.417758
0.417224
0.416691
0.416159
0.415629
0.4151
0.414573
0.414047
0.413522
0.412999
0.412477
0.411956
0.411437
0.410919
0.410403
0.409888
0.409374
0.408862
0.408351
0.407841
0.407332
0.406825
0.40632
0.405815
0.405312
0.40481
0.40431
0.403811
0.403313
0.402816
0.402321
0.401827
0.401334
0.400843
0.400353
0.399864
0.399376
0.39889
0.398405
0.397921
0.397438
0.396957
0.396477
0.395998
0.39552
0.395044
0.394569
0.394095
0.393622
0.393151
0.39268
0.392211
0.391743
0.391276
0.390811
0.390346
0.389883
0.389421
0.38896
0.388501
0.388042
0.387585
0.387129
0.386674
0.38622
0.385767
0.385315
0.384865
0.384415
0.383967
0.38352
0.383074
0.382629
0.382185
0.381743
0.381301
0.38086
0.380421
0.379983
0.379545
0.379109
0.378674
0.37824
0.377807
0.377375
0.376944
0.376515
0.376086
0.375658
0.375232
0.374806
0.374381
0.373958
0.373535
0.373114
0.372693
0.372274
0.371855
0.371438
0.371021
0.370606
0.370191
0.369778
0.369365
0.368954
0.368543
0.368133
0.367725
0.367317
0.36691
0.366504
0.3661
0.365696
0.365293
0.364891
0.36449
0.36409
0.36369
0.363292
0.362895
0.362498
0.362103
0.361708
0.361314
0.360921
0.360529
0.360138
0.359748
0.359359
0.35897
0.358583
0.358196
0.35781
0.357425
0.357041
0.356658
0.356275
0.355894
0.355513
0.355133
0.354754
0.354376
0.353998
0.353622
0.353246
0.352871
0.352497
0.352123
0.351751
0.351379
0.351008
0.350638
0.350269
0.3499
0.349532
0.349165
0.348799
0.348434
0.348071
0.347714
0.347376
0.347109
0.375763
0.376876
0.378229
0.37987
0.381853
0.384231
0.387033
0.390263
0.393904
0.397918
0.402253
0.40685
0.411641
0.416563
0.421554
0.426558
0.431525
0.436416
0.441197
0.44584
0.450326
0.454639
0.45877
0.462713
0.466465
0.470025
0.473395
0.476579
0.479582
0.482408
0.485064
0.487557
0.489892
0.492078
0.49412
0.496026
0.497802
0.499454
0.500989
0.502412
0.503731
0.504949
0.506072
0.507105
0.508053
0.508921
0.509712
0.510431
0.511081
0.511667
0.51219
0.512656
0.513066
0.513424
0.513732
0.513993
0.51421
0.514384
0.514517
0.514613
0.514672
0.514696
0.514688
0.514649
0.51458
0.514483
0.514359
0.51421
0.514037
0.513841
0.513622
0.513383
0.513124
0.512846
0.51255
0.512237
0.511908
0.511563
0.511203
0.510829
0.510442
0.510041
0.509629
0.509205
0.50877
0.508324
0.507868
0.507403
0.506928
0.506445
0.505953
0.505453
0.504946
0.504431
0.50391
0.503382
0.502848
0.502308
0.501763
0.501212
0.500656
0.500095
0.49953
0.49896
0.498386
0.497808
0.497226
0.496641
0.496052
0.49546
0.494866
0.494268
0.493668
0.493065
0.49246
0.491852
0.491242
0.490631
0.490017
0.489402
0.488785
0.488167
0.487547
0.486926
0.486304
0.485681
0.485056
0.484431
0.483805
0.483178
0.48255
0.481922
0.481294
0.480664
0.480035
0.479405
0.478775
0.478144
0.477514
0.476883
0.476252
0.475622
0.474991
0.47436
0.47373
0.4731
0.47247
0.47184
0.471211
0.470582
0.469954
0.469326
0.468698
0.468071
0.467444
0.466818
0.466193
0.465568
0.464944
0.464321
0.463698
0.463077
0.462455
0.461835
0.461216
0.460597
0.459979
0.459362
0.458746
0.458131
0.457517
0.456904
0.456292
0.455681
0.455071
0.454462
0.453854
0.453247
0.452641
0.452036
0.451432
0.45083
0.450228
0.449628
0.449028
0.44843
0.447834
0.447238
0.446643
0.44605
0.445458
0.444867
0.444277
0.443689
0.443101
0.442515
0.441931
0.441347
0.440765
0.440184
0.439604
0.439026
0.438449
0.437873
0.437298
0.436725
0.436153
0.435582
0.435013
0.434444
0.433878
0.433312
0.432748
0.432185
0.431623
0.431063
0.430504
0.429946
0.42939
0.428835
0.428281
0.427729
0.427178
0.426628
0.42608
0.425533
0.424987
0.424442
0.423899
0.423357
0.422817
0.422278
0.42174
0.421203
0.420668
0.420134
0.419602
0.41907
0.41854
0.418012
0.417484
0.416958
0.416433
0.41591
0.415388
0.414867
0.414347
0.413829
0.413312
0.412796
0.412282
0.411768
0.411256
0.410746
0.410236
0.409728
0.409221
0.408716
0.408212
0.407709
0.407207
0.406706
0.406207
0.405709
0.405212
0.404717
0.404222
0.403729
0.403237
0.402747
0.402257
0.401769
0.401282
0.400796
0.400312
0.399828
0.399346
0.398865
0.398385
0.397907
0.397429
0.396953
0.396478
0.396004
0.395532
0.39506
0.39459
0.394121
0.393653
0.393186
0.39272
0.392256
0.391792
0.39133
0.390869
0.390409
0.38995
0.389492
0.389036
0.38858
0.388126
0.387673
0.387221
0.386769
0.38632
0.385871
0.385423
0.384976
0.384531
0.384086
0.383643
0.3832
0.382759
0.382319
0.38188
0.381442
0.381005
0.380569
0.380134
0.3797
0.379267
0.378835
0.378405
0.377975
0.377546
0.377118
0.376692
0.376266
0.375841
0.375418
0.374995
0.374573
0.374153
0.373733
0.373315
0.372897
0.37248
0.372064
0.37165
0.371236
0.370823
0.370411
0.37
0.36959
0.369181
0.368773
0.368366
0.36796
0.367555
0.36715
0.366747
0.366345
0.365943
0.365542
0.365143
0.364744
0.364346
0.363949
0.363553
0.363158
0.362763
0.36237
0.361977
0.361585
0.361195
0.360805
0.360416
0.360027
0.35964
0.359254
0.358868
0.358483
0.358099
0.357716
0.357334
0.356952
0.356572
0.356192
0.355813
0.355435
0.355057
0.354681
0.354305
0.35393
0.353556
0.353182
0.35281
0.352438
0.352067
0.351697
0.351327
0.350959
0.350591
0.350224
0.349858
0.349492
0.349129
0.348772
0.348434
0.348167
0.375453
0.376105
0.376886
0.377816
0.378925
0.38025
0.381821
0.383662
0.385785
0.388194
0.390881
0.39383
0.397016
0.400408
0.403972
0.407673
0.411473
0.415339
0.419238
0.423141
0.427021
0.430855
0.434624
0.438312
0.441906
0.445395
0.448772
0.452031
0.455168
0.45818
0.461067
0.463827
0.466464
0.468977
0.471368
0.473642
0.4758
0.477846
0.479784
0.481616
0.483347
0.484979
0.486518
0.487966
0.489326
0.490603
0.4918
0.49292
0.493966
0.494942
0.49585
0.496693
0.497474
0.498196
0.498861
0.499472
0.500032
0.500541
0.501003
0.501419
0.501792
0.502124
0.502415
0.502668
0.502886
0.503068
0.503216
0.503333
0.503419
0.503476
0.503505
0.503507
0.503483
0.503435
0.503363
0.503269
0.503153