/*--------------------------------*- C++ -*----------------------------------*\
| =========                 |                                                 |
| \\      /  F ield         | OpenFOAM: The Open Source CFD Toolbox           |
|  \\    /   O peration     | Version:  2506                                  |
|   \\  /    A nd           | Website:  www.openfoam.com                      |
|    \\/     M anipulation  |                                                 |
\*---------------------------------------------------------------------------*/
FoamFile
{
    version     2.0;
    format      ascii;
    arch        "LSB;label=32;scalar=64";
    class       volScalarField;
    location    "900";
    object      nut;
}
// * * * * * * * * * * * * * * * * * * * * * * * * * * * * * * * * * * * * * //

dimensions      [0 2 -1 0 0 0 0];

internalField   nonuniform List<scalar> 
131949
(
0.0659348
0.068194
0.068284
0.0682257
0.0682935
0.0684261
0.0685771
0.0687316
0.0688829
0.0690269
0.0691625
0.0692894
0.0694083
0.0695196
0.069624
0.0697222
0.0698148
0.0699021
0.0699848
0.0700631
0.0701375
0.0702084
0.0702758
0.0703403
0.0704019
0.0704608
0.0705174
0.0705716
0.0706238
0.070674
0.0707223
0.0707689
0.0708138
0.0708572
0.0708992
0.0709398
0.0709792
0.0710173
0.0710542
0.0710901
0.0711249
0.0711587
0.0711916
0.0712236
0.0712547
0.071285
0.0713146
0.0713434
0.0713714
0.0713988
0.0714256
0.0714517
0.0714772
0.0715021
0.0715265
0.0715504
0.0715737
0.0715965
0.0716189
0.0716408
0.0716622
0.0716833
0.0717039
0.0717241
0.0717439
0.0717633
0.0717824
0.0718012
0.0718196
0.0718376
0.0718554
0.0718728
0.0718899
0.0719068
0.0719234
0.0719397
0.0719557
0.0719714
0.071987
0.0720022
0.0720173
0.0720321
0.0720466
0.072061
0.0720751
0.0720891
0.0721028
0.0721163
0.0721297
0.0721428
0.0721558
0.0721686
0.0721812
0.0721936
0.0722059
0.072218
0.07223
0.0722418
0.0722534
0.0722649
0.0722763
0.0722875
0.0722986
0.0723095
0.0723203
0.072331
0.0723415
0.0723519
0.0723622
0.0723724
0.0723825
0.0723924
0.0724023
0.072412
0.0724216
0.0724311
0.0724405
0.0724498
0.072459
0.0724681
0.0724772
0.0724861
0.0724949
0.0725036
0.0725123
0.0725208
0.0725293
0.0725377
0.072546
0.0725542
0.0725624
0.0725704
0.0725784
0.0725863
0.0725942
0.0726019
0.0726096
0.0726172
0.0726248
0.0726323
0.0726397
0.072647
0.0726543
0.0726615
0.0726687
0.0726758
0.0726828
0.0726898
0.0726967
0.0727036
0.0727104
0.0727171
0.0727238
0.0727304
0.072737
0.0727436
0.07275
0.0727565
0.0727628
0.0727692
0.0727755
0.0727817
0.0727879
0.072794
0.0728001
0.0728062
0.0728122
0.0728181
0.0728241
0.0728299
0.0728358
0.0728416
0.0728473
0.0728531
0.0728588
0.0728644
0.07287
0.0728756
0.0728811
0.0728866
0.0728921
0.0728975
0.0729029
0.0729083
0.0729136
0.0729189
0.0729242
0.0729294
0.0729346
0.0729398
0.0729449
0.0729501
0.0729551
0.0729602
0.0729652
0.0729702
0.0729752
0.0729802
0.0729851
0.07299
0.0729949
0.0729997
0.0730045
0.0730093
0.0730141
0.0730189
0.0730236
0.0730283
0.073033
0.0730376
0.0730423
0.0730469
0.0730515
0.0730561
0.0730606
0.0730651
0.0730697
0.0730742
0.0730786
0.0730831
0.0730875
0.0730919
0.0730963
0.0731007
0.0731051
0.0731094
0.0731138
0.0731181
0.0731224
0.0731266
0.0731309
0.0731351
0.0731394
0.0731436
0.0731478
0.073152
0.0731561
0.0731603
0.0731644
0.0731685
0.0731727
0.0731767
0.0731808
0.0731849
0.0731889
0.073193
0.073197
0.073201
0.073205
0.073209
0.073213
0.0732169
0.0732209
0.0732248
0.0732287
0.0732326
0.0732365
0.0732404
0.0732443
0.0732481
0.073252
0.0732558
0.0732596
0.0732634
0.0732672
0.073271
0.0732748
0.0732785
0.0732823
0.073286
0.0732898
0.0732935
0.0732972
0.0733009
0.0733046
0.0733082
0.0733119
0.0733155
0.0733192
0.0733228
0.0733264
0.07333
0.0733336
0.0733372
0.0733408
0.0733444
0.0733479
0.0733515
0.073355
0.0733585
0.0733621
0.0733656
0.0733691
0.0733726
0.073376
0.0733795
0.073383
0.0733864
0.0733898
0.0733933
0.0733967
0.0734001
0.0734035
0.0734069
0.0734103
0.0734136
0.073417
0.0734203
0.0734237
0.073427
0.0734303
0.0734336
0.0734369
0.0734402
0.0734435
0.0734468
0.07345
0.0734533
0.0734565
0.0734598
0.073463
0.0734662
0.0734694
0.0734726
0.0734758
0.0734789
0.0734821
0.0734853
0.0734884
0.0734915
0.0734946
0.0734977
0.0735008
0.0735039
0.073507
0.0735101
0.0735131
0.0735162
0.0735192
0.0735222
0.0735252
0.0735282
0.0735312
0.0735342
0.0735371
0.0735401
0.073543
0.0735459
0.0735488
0.0735517
0.0735546
0.0735575
0.0735603
0.0735632
0.073566
0.0735688
0.0735716
0.0735744
0.0735772
0.0735799
0.0735827
0.0735854
0.0735881
0.0735908
0.0735935
0.0735962
0.0735988
0.0736014
0.073604
0.0736066
0.0736092
0.0736118
0.0736143
0.0736169
0.0736194
0.0736219
0.0736244
0.0736268
0.0736292
0.0736317
0.0736341
0.0736364
0.0736388
0.0736411
0.0736435
0.0736458
0.073648
0.0736503
0.0736525
0.0736547
0.0736569
0.0736591
0.0736612
0.0736634
0.0736655
0.0736677
0.0736702
0.0736735
0.073679
0.0736882
0.0637129
0.066255
0.0678732
0.0686936
0.0691245
0.0693616
0.0694973
0.0695891
0.0696653
0.0697365
0.069806
0.069875
0.0699434
0.070011
0.0700774
0.0701424
0.0702056
0.0702671
0.0703267
0.0703844
0.0704403
0.0704944
0.0705467
0.0705974
0.0706463
0.0706937
0.0707397
0.0707841
0.0708272
0.070869
0.0709095
0.0709488
0.070987
0.0710241
0.0710601
0.0710952
0.0711292
0.0711624
0.0711947
0.0712262
0.0712569
0.0712868
0.0713159
0.0713444
0.0713721
0.0713993
0.0714258
0.0714517
0.071477
0.0715017
0.071526
0.0715497
0.0715729
0.0715956
0.0716178
0.0716396
0.071661
0.071682
0.0717025
0.0717227
0.0717424
0.0717618
0.0717809
0.0717996
0.071818
0.071836
0.0718538
0.0718712
0.0718883
0.0719052
0.0719217
0.071938
0.0719541
0.0719698
0.0719853
0.0720006
0.0720157
0.0720305
0.0720451
0.0720594
0.0720736
0.0720876
0.0721013
0.0721148
0.0721282
0.0721414
0.0721544
0.0721672
0.0721798
0.0721923
0.0722046
0.0722167
0.0722287
0.0722405
0.0722522
0.0722637
0.0722751
0.0722863
0.0722974
0.0723083
0.0723192
0.0723299
0.0723404
0.0723509
0.0723612
0.0723714
0.0723815
0.0723914
0.0724013
0.072411
0.0724207
0.0724302
0.0724396
0.072449
0.0724582
0.0724673
0.0724763
0.0724853
0.0724941
0.0725029
0.0725115
0.0725201
0.0725286
0.072537
0.0725453
0.0725535
0.0725617
0.0725698
0.0725778
0.0725857
0.0725935
0.0726013
0.072609
0.0726167
0.0726242
0.0726317
0.0726391
0.0726465
0.0726538
0.072661
0.0726682
0.0726753
0.0726823
0.0726893
0.0726963
0.0727031
0.0727099
0.0727167
0.0727234
0.07273
0.0727366
0.0727431
0.0727496
0.0727561
0.0727624
0.0727688
0.0727751
0.0727813
0.0727875
0.0727936
0.0727997
0.0728058
0.0728118
0.0728178
0.0728237
0.0728296
0.0728354
0.0728412
0.072847
0.0728527
0.0728584
0.072864
0.0728696
0.0728752
0.0728807
0.0728862
0.0728917
0.0728971
0.0729025
0.0729078
0.0729132
0.0729184
0.0729237
0.0729289
0.0729341
0.0729393
0.0729444
0.0729495
0.0729546
0.0729597
0.0729647
0.0729697
0.0729747
0.0729796
0.0729845
0.0729894
0.0729943
0.0729991
0.0730039
0.0730087
0.0730135
0.0730182
0.0730229
0.0730276
0.0730323
0.0730369
0.0730415
0.0730462
0.0730507
0.0730553
0.0730598
0.0730644
0.0730689
0.0730733
0.0730778
0.0730822
0.0730867
0.0730911
0.0730954
0.0730998
0.0731042
0.0731085
0.0731128
0.0731171
0.0731214
0.0731256
0.0731299
0.0731341
0.0731383
0.0731425
0.0731467
0.0731509
0.073155
0.0731592
0.0731633
0.0731674
0.0731715
0.0731756
0.0731796
0.0731837
0.0731877
0.0731917
0.0731957
0.0731997
0.0732037
0.0732077
0.0732116
0.0732156
0.0732195
0.0732234
0.0732273
0.0732312
0.0732351
0.073239
0.0732428
0.0732467
0.0732505
0.0732543
0.0732581
0.0732619
0.0732657
0.0732695
0.0732732
0.073277
0.0732807
0.0732845
0.0732882
0.0732919
0.0732956
0.0732993
0.0733029
0.0733066
0.0733103
0.0733139
0.0733175
0.0733211
0.0733248
0.0733284
0.0733319
0.0733355
0.0733391
0.0733427
0.0733462
0.0733497
0.0733533
0.0733568
0.0733603
0.0733638
0.0733673
0.0733708
0.0733742
0.0733777
0.0733812
0.0733846
0.073388
0.0733915
0.0733949
0.0733983
0.0734017
0.0734051
0.0734084
0.0734118
0.0734152
0.0734185
0.0734218
0.0734252
0.0734285
0.0734318
0.0734351
0.0734384
0.0734417
0.0734449
0.0734482
0.0734514
0.0734547
0.0734579
0.0734611
0.0734644
0.0734676
0.0734708
0.0734739
0.0734771
0.0734803
0.0734834
0.0734866
0.0734897
0.0734928
0.0734959
0.073499
0.0735021
0.0735052
0.0735083
0.0735114
0.0735144
0.0735175
0.0735205
0.0735235
0.0735265
0.0735295
0.0735325
0.0735355
0.0735384
0.0735414
0.0735443
0.0735472
0.0735502
0.0735531
0.0735559
0.0735588
0.0735617
0.0735645
0.0735674
0.0735702
0.073573
0.0735758
0.0735786
0.0735814
0.0735841
0.0735869
0.0735896
0.0735923
0.073595
0.0735977
0.0736004
0.073603
0.0736056
0.0736083
0.0736109
0.0736135
0.073616
0.0736186
0.0736211
0.0736236
0.0736261
0.0736286
0.0736311
0.0736335
0.073636
0.0736384
0.0736408
0.0736431
0.0736455
0.0736478
0.0736501
0.0736524
0.0736547
0.0736569
0.0736592
0.0736614
0.0736636
0.0736657
0.0736679
0.07367
0.0736721
0.0736742
0.0736764
0.0736788
0.0736821
0.0736876
0.0736968
0.0627756
0.0647438
0.0664136
0.0676594
0.0685604
0.0691961
0.0696295
0.0699228
0.0701254
0.0702697
0.0703766
0.0704597
0.0705275
0.0705856
0.0706372
0.0706844
0.0707286
0.0707706
0.0708108
0.0708497
0.0708874
0.0709241
0.0709599
0.0709948
0.071029
0.0710623
0.071095
0.0711269
0.0711582
0.0711888
0.0712187
0.071248
0.0712767
0.0713048
0.0713323
0.0713593
0.0713857
0.0714116
0.0714369
0.0714617
0.0714861
0.07151
0.0715334
0.0715563
0.0715788
0.0716009
0.0716226
0.0716439
0.0716648
0.0716853
0.0717054
0.0717252
0.0717446
0.0717637
0.0717824
0.0718009
0.071819
0.0718368
0.0718544
0.0718716
0.0718886
0.0719052
0.0719217
0.0719378
0.0719537
0.0719694
0.0719848
0.072
0.072015
0.0720297
0.0720442
0.0720585
0.0720726
0.0720866
0.0721003
0.0721138
0.0721271
0.0721402
0.0721532
0.072166
0.0721786
0.0721911
0.0722034
0.0722155
0.0722275
0.0722393
0.0722509
0.0722625
0.0722739
0.0722851
0.0722962
0.0723072
0.072318
0.0723287
0.0723393
0.0723497
0.0723601
0.0723703
0.0723804
0.0723904
0.0724002
0.07241
0.0724196
0.0724292
0.0724386
0.072448
0.0724572
0.0724664
0.0724754
0.0724844
0.0724932
0.072502
0.0725107
0.0725193
0.0725278
0.0725362
0.0725445
0.0725528
0.0725609
0.072569
0.0725771
0.072585
0.0725929
0.0726007
0.0726084
0.072616
0.0726236
0.0726311
0.0726386
0.0726459
0.0726532
0.0726605
0.0726677
0.0726748
0.0726818
0.0726888
0.0726958
0.0727027
0.0727095
0.0727162
0.0727229
0.0727296
0.0727362
0.0727427
0.0727492
0.0727557
0.0727621
0.0727684
0.0727747
0.0727809
0.0727871
0.0727933
0.0727994
0.0728054
0.0728114
0.0728174
0.0728233
0.0728292
0.072835
0.0728408
0.0728466
0.0728523
0.072858
0.0728636
0.0728692
0.0728747
0.0728803
0.0728857
0.0728912
0.0728966
0.072902
0.0729073
0.0729126
0.0729179
0.0729232
0.0729284
0.0729336
0.0729387
0.0729438
0.0729489
0.072954
0.072959
0.072964
0.072969
0.0729739
0.0729788
0.0729837
0.0729886
0.0729934
0.0729982
0.073003
0.0730078
0.0730125
0.0730172
0.0730219
0.0730266
0.0730312
0.0730359
0.0730405
0.073045
0.0730496
0.0730541
0.0730586
0.0730631
0.0730676
0.073072
0.0730765
0.0730809
0.0730853
0.0730896
0.073094
0.0730983
0.0731026
0.0731069
0.0731112
0.0731155
0.0731197
0.073124
0.0731282
0.0731324
0.0731366
0.0731407
0.0731449
0.073149
0.0731531
0.0731572
0.0731613
0.0731654
0.0731694
0.0731735
0.0731775
0.0731815
0.0731855
0.0731895
0.0731935
0.0731975
0.0732014
0.0732054
0.0732093
0.0732132
0.0732171
0.073221
0.0732248
0.0732287
0.0732326
0.0732364
0.0732402
0.073244
0.0732478
0.0732516
0.0732554
0.0732592
0.0732629
0.0732667
0.0732704
0.0732741
0.0732779
0.0732816
0.0732852
0.0732889
0.0732926
0.0732963
0.0732999
0.0733036
0.0733072
0.0733108
0.0733144
0.073318
0.0733216
0.0733252
0.0733287
0.0733323
0.0733359
0.0733394
0.0733429
0.0733464
0.07335
0.0733535
0.073357
0.0733604
0.0733639
0.0733674
0.0733708
0.0733743
0.0733777
0.0733811
0.0733846
0.073388
0.0733914
0.0733948
0.0733981
0.0734015
0.0734049
0.0734082
0.0734116
0.0734149
0.0734183
0.0734216
0.0734249
0.0734282
0.0734315
0.0734348
0.073438
0.0734413
0.0734446
0.0734478
0.073451
0.0734543
0.0734575
0.0734607
0.0734639
0.0734671
0.0734703
0.0734735
0.0734766
0.0734798
0.073483
0.0734861
0.0734892
0.0734924
0.0734955
0.0734986
0.0735017
0.0735047
0.0735078
0.0735109
0.0735139
0.073517
0.07352
0.0735231
0.0735261
0.0735291
0.0735321
0.0735351
0.073538
0.073541
0.073544
0.0735469
0.0735498
0.0735528
0.0735557
0.0735586
0.0735615
0.0735643
0.0735672
0.0735701
0.0735729
0.0735757
0.0735785
0.0735814
0.0735841
0.0735869
0.0735897
0.0735925
0.0735952
0.0735979
0.0736006
0.0736033
0.073606
0.0736087
0.0736114
0.073614
0.0736166
0.0736192
0.0736218
0.0736244
0.073627
0.0736295
0.0736321
0.0736346
0.0736371
0.0736396
0.0736421
0.0736445
0.0736469
0.0736494
0.0736518
0.0736541
0.0736565
0.0736588
0.0736612
0.0736635
0.0736658
0.073668
0.0736703
0.0736725
0.0736747
0.0736769
0.073679
0.0736812
0.0736833
0.0736854
0.0736875
0.0736895
0.0736916
0.0736937
0.0736961
0.0736994
0.0737048
0.0737139
0.0620602
0.063308
0.0646078
0.0658342
0.0669193
0.0678343
0.0685744
0.0691571
0.0696103
0.0699611
0.0702329
0.0704448
0.0706118
0.0707451
0.0708532
0.0709423
0.0710172
0.0710812
0.0711368
0.0711859
0.0712299
0.07127
0.0713068
0.0713409
0.071373
0.0714032
0.0714319
0.0714594
0.0714857
0.0715111
0.0715357
0.0715594
0.0715825
0.071605
0.071627
0.0716484
0.0716693
0.0716897
0.0717098
0.0717294
0.0717487
0.0717676
0.0717861
0.0718043
0.0718223
0.0718399
0.0718572
0.0718742
0.0718909
0.0719074
0.0719236
0.0719396
0.0719553
0.0719708
0.071986
0.0720011
0.0720159
0.0720305
0.0720449
0.0720591
0.072073
0.0720868
0.0721004
0.0721139
0.0721271
0.0721402
0.0721531
0.0721658
0.0721783
0.0721907
0.072203
0.072215
0.072227
0.0722388
0.0722504
0.0722619
0.0722732
0.0722844
0.0722955
0.0723065
0.0723173
0.072328
0.0723386
0.072349
0.0723593
0.0723696
0.0723797
0.0723896
0.0723995
0.0724093
0.0724189
0.0724285
0.072438
0.0724473
0.0724566
0.0724657
0.0724748
0.0724837
0.0724926
0.0725014
0.0725101
0.0725187
0.0725272
0.0725357
0.072544
0.0725523
0.0725605
0.0725686
0.0725766
0.0725846
0.0725925
0.0726003
0.072608
0.0726157
0.0726233
0.0726308
0.0726382
0.0726456
0.072653
0.0726602
0.0726674
0.0726745
0.0726816
0.0726886
0.0726956
0.0727025
0.0727093
0.0727161
0.0727228
0.0727295
0.0727361
0.0727426
0.0727491
0.0727556
0.072762
0.0727683
0.0727746
0.0727809
0.0727871
0.0727932
0.0727993
0.0728054
0.0728114
0.0728174
0.0728233
0.0728291
0.072835
0.0728408
0.0728465
0.0728522
0.0728579
0.0728635
0.0728691
0.0728747
0.0728802
0.0728857
0.0728911
0.0728965
0.0729019
0.0729072
0.0729125
0.0729177
0.072923
0.0729282
0.0729333
0.0729384
0.0729435
0.0729486
0.0729536
0.0729586
0.0729636
0.0729686
0.0729735
0.0729784
0.0729832
0.0729881
0.0729929
0.0729976
0.0730024
0.0730071
0.0730118
0.0730165
0.0730211
0.0730258
0.0730304
0.073035
0.0730395
0.073044
0.0730486
0.073053
0.0730575
0.073062
0.0730664
0.0730708
0.0730752
0.0730795
0.0730839
0.0730882
0.0730925
0.0730968
0.0731011
0.0731053
0.0731095
0.0731138
0.073118
0.0731221
0.0731263
0.0731304
0.0731346
0.0731387
0.0731428
0.0731469
0.0731509
0.073155
0.073159
0.073163
0.073167
0.073171
0.073175
0.073179
0.0731829
0.0731869
0.0731908
0.0731947
0.0731986
0.0732025
0.0732064
0.0732102
0.0732141
0.0732179
0.0732217
0.0732255
0.0732293
0.0732331
0.0732369
0.0732407
0.0732444
0.0732481
0.0732519
0.0732556
0.0732593
0.073263
0.0732667
0.0732704
0.073274
0.0732777
0.0732813
0.073285
0.0732886
0.0732922
0.0732958
0.0732994
0.073303
0.0733066
0.0733102
0.0733137
0.0733173
0.0733208
0.0733243
0.0733279
0.0733314
0.0733349
0.0733384
0.0733419
0.0733453
0.0733488
0.0733523
0.0733557
0.0733592
0.0733626
0.073366
0.0733694
0.0733728
0.0733762
0.0733796
0.073383
0.0733864
0.0733897
0.0733931
0.0733965
0.0733998
0.0734031
0.0734065
0.0734098
0.0734131
0.0734164
0.0734197
0.0734229
0.0734262
0.0734295
0.0734327
0.073436
0.0734392
0.0734425
0.0734457
0.0734489
0.0734521
0.0734553
0.0734585
0.0734617
0.0734649
0.0734681
0.0734712
0.0734744
0.0734775
0.0734807
0.0734838
0.0734869
0.07349
0.0734931
0.0734962
0.0734993
0.0735024
0.0735055
0.0735085
0.0735116
0.0735147
0.0735177
0.0735207
0.0735237
0.0735268
0.0735298
0.0735328
0.0735358
0.0735387
0.0735417
0.0735447
0.0735476
0.0735506
0.0735535
0.0735564
0.0735593
0.0735622
0.0735651
0.073568
0.0735709
0.0735738
0.0735766
0.0735795
0.0735823
0.0735851
0.0735879
0.0735907
0.0735935
0.0735963
0.0735991
0.0736018
0.0736046
0.0736073
0.0736101
0.0736128
0.0736155
0.0736182
0.0736208
0.0736235
0.0736261
0.0736288
0.0736314
0.073634
0.0736366
0.0736392
0.0736418
0.0736443
0.0736469
0.0736494
0.0736519
0.0736544
0.0736569
0.0736593
0.0736618
0.0736642
0.0736666
0.073669
0.0736714
0.0736738
0.0736761
0.0736784
0.0736808
0.0736831
0.0736853
0.0736876
0.0736898
0.073692
0.0736942
0.0736964
0.0736986
0.0737007
0.0737028
0.0737049
0.073707
0.0737091
0.0737111
0.0737131
0.0737151
0.0737171
0.0737192
0.0737215
0.0737247
0.0737301
0.0737392
0.0616763
0.0623976
0.0632484
0.0641755
0.0651192
0.0660283
0.0668645
0.0676064
0.0682489
0.0687958
0.0692564
0.0696417
0.0699631
0.0702314
0.0704557
0.0706442
0.0708033
0.0709385
0.0710542
0.0711539
0.0712405
0.0713163
0.0713831
0.0714425
0.0714958
0.0715437
0.0715873
0.0716271
0.0716638
0.0716977
0.0717292
0.0717587
0.0717863
0.0718125
0.0718372
0.0718607
0.0718831
0.0719046
0.0719252
0.071945
0.0719641
0.0719826
0.0720004
0.0720178
0.0720346
0.072051
0.0720669
0.0720825
0.0720977
0.0721126
0.0721271
0.0721413
0.0721553
0.0721689
0.0721823
0.0721955
0.0722085
0.0722212
0.0722337
0.072246
0.0722581
0.07227
0.0722818
0.0722933
0.0723047
0.072316
0.0723271
0.072338
0.0723488
0.0723594
0.0723699
0.0723803
0.0723905
0.0724007
0.0724106
0.0724205
0.0724303
0.0724399
0.0724494
0.0724589
0.0724682
0.0724774
0.0724865
0.0724955
0.0725044
0.0725132
0.0725219
0.0725305
0.0725391
0.0725475
0.0725559
0.0725641
0.0725723
0.0725804
0.0725885
0.0725964
0.0726043
0.0726121
0.0726198
0.0726275
0.072635
0.0726425
0.07265
0.0726573
0.0726646
0.0726719
0.072679
0.0726861
0.0726932
0.0727002
0.0727071
0.0727139
0.0727207
0.0727275
0.0727342
0.0727408
0.0727474
0.0727539
0.0727603
0.0727667
0.0727731
0.0727794
0.0727857
0.0727919
0.072798
0.0728041
0.0728102
0.0728162
0.0728222
0.0728281
0.072834
0.0728398
0.0728456
0.0728513
0.0728571
0.0728627
0.0728683
0.0728739
0.0728795
0.072885
0.0728904
0.0728958
0.0729012
0.0729066
0.0729119
0.0729171
0.0729224
0.0729276
0.0729328
0.0729379
0.072943
0.0729481
0.0729531
0.0729581
0.0729631
0.072968
0.0729729
0.0729778
0.0729826
0.0729874
0.0729922
0.072997
0.0730017
0.0730064
0.0730111
0.0730158
0.0730204
0.073025
0.0730295
0.0730341
0.0730386
0.0730431
0.0730476
0.073052
0.0730565
0.0730609
0.0730653
0.0730696
0.073074
0.0730783
0.0730826
0.0730868
0.0730911
0.0730953
0.0730995
0.0731037
0.0731079
0.0731121
0.0731162
0.0731203
0.0731244
0.0731285
0.0731326
0.0731367
0.0731407
0.0731447
0.0731487
0.0731527
0.0731567
0.0731606
0.0731646
0.0731685
0.0731724
0.0731763
0.0731802
0.0731841
0.0731879
0.0731918
0.0731956
0.0731994
0.0732032
0.073207
0.0732108
0.0732145
0.0732183
0.073222
0.0732257
0.0732295
0.0732332
0.0732369
0.0732405
0.0732442
0.0732479
0.0732515
0.0732552
0.0732588
0.0732624
0.073266
0.0732696
0.0732732
0.0732768
0.0732804
0.0732839
0.0732875
0.073291
0.0732945
0.0732981
0.0733016
0.0733051
0.0733086
0.0733121
0.0733155
0.073319
0.0733225
0.0733259
0.0733294
0.0733328
0.0733362
0.0733397
0.0733431
0.0733465
0.0733499
0.0733533
0.0733566
0.07336
0.0733634
0.0733667
0.0733701
0.0733734
0.0733768
0.0733801
0.0733834
0.0733867
0.07339
0.0733933
0.0733966
0.0733999
0.0734032
0.0734064
0.0734097
0.0734129
0.0734162
0.0734194
0.0734227
0.0734259
0.0734291
0.0734323
0.0734355
0.0734387
0.0734419
0.0734451
0.0734482
0.0734514
0.0734546
0.0734577
0.0734609
0.073464
0.0734671
0.0734703
0.0734734
0.0734765
0.0734796
0.0734827
0.0734858
0.0734889
0.073492
0.073495
0.0734981
0.0735011
0.0735042
0.0735072
0.0735103
0.0735133
0.0735163
0.0735193
0.0735223
0.0735253
0.0735283
0.0735313
0.0735343
0.0735373
0.0735402
0.0735432
0.0735461
0.0735491
0.073552
0.0735549
0.0735578
0.0735608
0.0735637
0.0735665
0.0735694
0.0735723
0.0735752
0.073578
0.0735809
0.0735838
0.0735866
0.0735894
0.0735922
0.0735951
0.0735979
0.0736007
0.0736034
0.0736062
0.073609
0.0736117
0.0736145
0.0736172
0.07362
0.0736227
0.0736254
0.0736281
0.0736308
0.0736335
0.0736361
0.0736388
0.0736415
0.0736441
0.0736467
0.0736493
0.0736519
0.0736545
0.0736571
0.0736597
0.0736622
0.0736648
0.0736673
0.0736698
0.0736723
0.0736748
0.0736773
0.0736798
0.0736822
0.0736846
0.0736871
0.0736895
0.0736919
0.0736942
0.0736966
0.0736989
0.0737013
0.0737036
0.0737059
0.0737082
0.0737104
0.0737127
0.0737149
0.0737171
0.0737193
0.0737215
0.0737237
0.0737258
0.0737279
0.07373
0.0737321
0.0737342
0.0737362
0.0737382
0.0737402
0.0737422
0.0737442
0.0737461
0.0737481
0.07375
0.073752
0.0737543
0.0737574
0.0737627
0.0737717
0.0614873
0.0618997
0.0624111
0.0630134
0.0636872
0.0644048
0.0651352
0.0658502
0.0665284
0.0671565
0.0677273
0.0682388
0.0686925
0.0690921
0.0694425
0.0697492
0.0700172
0.0702516
0.0704569
0.0706372
0.0707958
0.070936
0.0710601
0.0711706
0.0712692
0.0713576
0.0714371
0.071509
0.0715742
0.0716335
0.0716878
0.0717376
0.0717834
0.0718258
0.0718651
0.0719016
0.0719357
0.0719676
0.0719976
0.0720258
0.0720524
0.0720776
0.0721015
0.0721243
0.0721459
0.0721666
0.0721864
0.0722054
0.0722236
0.0722412
0.0722581
0.0722744
0.0722902
0.0723055
0.0723203
0.0723346
0.0723486
0.0723621
0.0723753
0.0723882
0.0724007
0.072413
0.072425
0.0724367
0.0724481
0.0724593
0.0724703
0.0724811
0.0724916
0.072502
0.0725122
0.0725222
0.072532
0.0725417
0.0725512
0.0725605
0.0725697
0.0725788
0.0725877
0.0725966
0.0726052
0.0726138
0.0726222
0.0726306
0.0726388
0.0726469
0.0726549
0.0726629
0.0726707
0.0726784
0.072686
0.0726936
0.072701
0.0727084
0.0727157
0.0727229
0.0727301
0.0727371
0.0727441
0.072751
0.0727579
0.0727647
0.0727714
0.072778
0.0727846
0.0727911
0.0727975
0.0728039
0.0728103
0.0728165
0.0728228
0.0728289
0.072835
0.0728411
0.0728471
0.072853
0.0728589
0.0728648
0.0728706
0.0728763
0.072882
0.0728877
0.0728933
0.0728988
0.0729044
0.0729098
0.0729153
0.0729207
0.072926
0.0729313
0.0729366
0.0729418
0.072947
0.0729522
0.0729573
0.0729624
0.0729674
0.0729724
0.0729774
0.0729823
0.0729872
0.0729921
0.0729969
0.0730017
0.0730065
0.0730112
0.073016
0.0730206
0.0730253
0.0730299
0.0730345
0.0730391
0.0730436
0.0730481
0.0730526
0.073057
0.0730614
0.0730658
0.0730702
0.0730746
0.0730789
0.0730832
0.0730875
0.0730917
0.0730959
0.0731001
0.0731043
0.0731085
0.0731126
0.0731167
0.0731208
0.0731249
0.073129
0.073133
0.073137
0.073141
0.073145
0.0731489
0.0731529
0.0731568
0.0731607
0.0731646
0.0731685
0.0731723
0.0731762
0.07318
0.0731838
0.0731876
0.0731914
0.0731951
0.0731989
0.0732026
0.0732064
0.0732101
0.0732138
0.0732174
0.0732211
0.0732247
0.0732284
0.073232
0.0732356
0.0732392
0.0732428
0.0732464
0.07325
0.0732535
0.0732571
0.0732606
0.0732642
0.0732677
0.0732712
0.0732747
0.0732782
0.0732816
0.0732851
0.0732886
0.073292
0.0732954
0.0732989
0.0733023
0.0733057
0.0733091
0.0733125
0.0733159
0.0733193
0.0733226
0.073326
0.0733293
0.0733327
0.073336
0.0733394
0.0733427
0.073346
0.0733493
0.0733526
0.0733559
0.0733592
0.0733625
0.0733657
0.073369
0.0733723
0.0733755
0.0733788
0.073382
0.0733852
0.0733884
0.0733917
0.0733949
0.0733981
0.0734013
0.0734045
0.0734077
0.0734108
0.073414
0.0734172
0.0734204
0.0734235
0.0734267
0.0734298
0.0734329
0.0734361
0.0734392
0.0734423
0.0734454
0.0734485
0.0734516
0.0734547
0.0734578
0.0734609
0.073464
0.0734671
0.0734701
0.0734732
0.0734762
0.0734793
0.0734823
0.0734854
0.0734884
0.0734914
0.0734944
0.0734974
0.0735005
0.0735035
0.0735064
0.0735094
0.0735124
0.0735154
0.0735184
0.0735213
0.0735243
0.0735273
0.0735302
0.0735331
0.0735361
0.073539
0.0735419
0.0735449
0.0735478
0.0735507
0.0735536
0.0735565
0.0735594
0.0735622
0.0735651
0.073568
0.0735709
0.0735737
0.0735766
0.0735794
0.0735823
0.0735851
0.0735879
0.0735907
0.0735936
0.0735964
0.0735992
0.073602
0.0736047
0.0736075
0.0736103
0.0736131
0.0736158
0.0736186
0.0736213
0.0736241
0.0736268
0.0736295
0.0736322
0.0736349
0.0736376
0.0736403
0.073643
0.0736457
0.0736484
0.073651
0.0736537
0.0736563
0.073659
0.0736616
0.0736642
0.0736668
0.0736694
0.073672
0.0736746
0.0736772
0.0736797
0.0736823
0.0736848
0.0736873
0.0736899
0.0736924
0.0736949
0.0736974
0.0736998
0.0737023
0.0737048
0.0737072
0.0737096
0.073712
0.0737144
0.0737168
0.0737192
0.0737216
0.0737239
0.0737263
0.0737286
0.0737309
0.0737332
0.0737355
0.0737378
0.07374
0.0737423
0.0737445
0.0737467
0.0737489
0.073751
0.0737532
0.0737553
0.0737575
0.0737596
0.0737617
0.0737637
0.0737658
0.0737678
0.0737698
0.0737718
0.0737738
0.0737758
0.0737777
0.0737796
0.0737815
0.0737834
0.0737853
0.0737871
0.073789
0.0737909
0.0737931
0.0737961
0.0738014
0.0738103
0.0613929
0.0616395
0.0619447
0.0623136
0.0627464
0.0632374
0.0637743
0.0643413
0.0649214
0.0654994
0.0660623
0.0666003
0.0671066
0.0675775
0.0680111
0.0684076
0.0687682
0.0690949
0.0693902
0.0696567
0.0698971
0.0701139
0.0703096
0.0704864
0.0706464
0.0707914
0.0709231
0.0710429
0.0711521
0.0712519
0.0713434
0.0714273
0.0715045
0.0715757
0.0716415
0.0717025
0.0717591
0.0718117
0.0718608
0.0719066
0.0719495
0.0719898
0.0720276
0.0720632
0.0720968
0.0721285
0.0721585
0.072187
0.0722141
0.0722398
0.0722643
0.0722877
0.07231
0.0723314
0.0723518
0.0723715
0.0723903
0.0724085
0.0724259
0.0724428
0.072459
0.0724747
0.0724899
0.0725045
0.0725187
0.0725325
0.0725459
0.0725589
0.0725715
0.0725838
0.0725958
0.0726074
0.0726188
0.0726299
0.0726407
0.0726513
0.0726616
0.0726717
0.0726816
0.0726913
0.0727008
0.0727101
0.0727192
0.0727282
0.0727369
0.0727456
0.072754
0.0727624
0.0727705
0.0727786
0.0727865
0.0727943
0.0728019
0.0728095
0.0728169
0.0728242
0.0728314
0.0728386
0.0728456
0.0728525
0.0728593
0.0728661
0.0728727
0.0728793
0.0728858
0.0728922
0.0728985
0.0729048
0.0729109
0.072917
0.0729231
0.072929
0.0729349
0.0729408
0.0729466
0.0729523
0.0729579
0.0729635
0.0729691
0.0729746
0.07298
0.0729854
0.0729907
0.072996
0.0730012
0.0730064
0.0730116
0.0730167
0.0730217
0.0730267
0.0730317
0.0730366
0.0730415
0.0730463
0.0730511
0.0730558
0.0730606
0.0730652
0.0730699
0.0730745
0.0730791
0.0730836
0.0730881
0.0730926
0.073097
0.0731014
0.0731058
0.0731102
0.0731145
0.0731187
0.073123
0.0731272
0.0731314
0.0731356
0.0731397
0.0731439
0.0731479
0.073152
0.0731561
0.0731601
0.0731641
0.073168
0.073172
0.0731759
0.0731798
0.0731837
0.0731875
0.0731914
0.0731952
0.073199
0.0732028
0.0732065
0.0732103
0.073214
0.0732177
0.0732214
0.073225
0.0732287
0.0732323
0.073236
0.0732396
0.0732431
0.0732467
0.0732503
0.0732538
0.0732573
0.0732609
0.0732644
0.0732679
0.0732713
0.0732748
0.0732782
0.0732817
0.0732851
0.0732885
0.0732919
0.0732953
0.0732987
0.073302
0.0733054
0.0733087
0.0733121
0.0733154
0.0733187
0.073322
0.0733253
0.0733286
0.0733319
0.0733352
0.0733384
0.0733417
0.0733449
0.0733482
0.0733514
0.0733546
0.0733578
0.073361
0.0733642
0.0733674
0.0733706
0.0733738
0.0733769
0.0733801
0.0733833
0.0733864
0.0733896
0.0733927
0.0733958
0.0733989
0.0734021
0.0734052
0.0734083
0.0734114
0.0734145
0.0734176
0.0734206
0.0734237
0.0734268
0.0734298
0.0734329
0.073436
0.073439
0.073442
0.0734451
0.0734481
0.0734511
0.0734542
0.0734572
0.0734602
0.0734632
0.0734662
0.0734692
0.0734722
0.0734752
0.0734782
0.0734811
0.0734841
0.0734871
0.07349
0.073493
0.073496
0.0734989
0.0735018
0.0735048
0.0735077
0.0735106
0.0735136
0.0735165
0.0735194
0.0735223
0.0735252
0.0735281
0.073531
0.0735339
0.0735368
0.0735397
0.0735425
0.0735454
0.0735483
0.0735511
0.073554
0.0735568
0.0735597
0.0735625
0.0735654
0.0735682
0.073571
0.0735738
0.0735767
0.0735795
0.0735823
0.0735851
0.0735879
0.0735907
0.0735935
0.0735962
0.073599
0.0736018
0.0736046
0.0736073
0.0736101
0.0736128
0.0736156
0.0736183
0.073621
0.0736238
0.0736265
0.0736292
0.0736319
0.0736346
0.0736373
0.07364
0.0736427
0.0736454
0.0736481
0.0736508
0.0736534
0.0736561
0.0736588
0.0736614
0.0736641
0.0736667
0.0736693
0.073672
0.0736746
0.0736772
0.0736798
0.0736824
0.073685
0.0736876
0.0736901
0.0736927
0.0736953
0.0736978
0.0737004
0.0737029
0.0737054
0.073708
0.0737105
0.073713
0.0737155
0.073718
0.0737205
0.0737229
0.0737254
0.0737279
0.0737303
0.0737327
0.0737352
0.0737376
0.07374
0.0737424
0.0737448
0.0737471
0.0737495
0.0737519
0.0737542
0.0737565
0.0737589
0.0737612
0.0737635
0.0737657
0.073768
0.0737703
0.0737725
0.0737747
0.073777
0.0737792
0.0737814
0.0737835
0.0737857
0.0737878
0.07379
0.0737921
0.0737942
0.0737963
0.0737983
0.0738004
0.0738024
0.0738045
0.0738065
0.0738085
0.0738104
0.0738124
0.0738143
0.0738162
0.0738181
0.07382
0.0738219
0.0738237
0.0738255
0.0738273
0.0738291
0.0738309
0.0738327
0.0738345
0.0738366
0.0738396
0.0738448
0.0738536
0.0613427
0.0615007
0.0616908
0.0619183
0.0621878
0.0625019
0.0628597
0.0632567
0.063686
0.0641389
0.0646062
0.0650789
0.0655487
0.0660087
0.0664532
0.0668783
0.0672813
0.0676604
0.068015
0.0683453
0.0686517
0.0689354
0.0691974
0.0694391
0.069662
0.0698674
0.0700568
0.0702314
0.0703925
0.0705413
0.0706789
0.0708062
0.0709242
0.0710336
0.0711353
0.0712298
0.0713179
0.0714
0.0714768
0.0715485
0.0716158
0.0716788
0.0717381
0.0717938
0.0718463
0.0718958
0.0719425
0.0719867
0.0720285
0.0720681
0.0721057
0.0721415
0.0721755
0.0722078
0.0722387
0.0722681
0.0722963
0.0723232
0.0723489
0.0723736
0.0723972
0.0724199
0.0724418
0.0724627
0.0724829
0.0725024
0.0725212
0.0725393
0.0725567
0.0725736
0.07259
0.0726058
0.0726211
0.0726359
0.0726503
0.0726643
0.0726778
0.072691
0.0727038
0.0727163
0.0727284
0.0727402
0.0727517
0.0727629
0.0727739
0.0727846
0.072795
0.0728052
0.0728152
0.0728249
0.0728344
0.0728437
0.0728529
0.0728618
0.0728706
0.0728792
0.0728876
0.0728958
0.0729039
0.0729119
0.0729197
0.0729274
0.0729349
0.0729423
0.0729496
0.0729568
0.0729638
0.0729707
0.0729776
0.0729843
0.0729909
0.0729974
0.0730039
0.0730102
0.0730164
0.0730226
0.0730287
0.0730346
0.0730406
0.0730464
0.0730521
0.0730578
0.0730634
0.073069
0.0730745
0.0730799
0.0730852
0.0730905
0.0730957
0.0731009
0.073106
0.073111
0.073116
0.073121
0.0731259
0.0731307
0.0731355
0.0731403
0.073145
0.0731496
0.0731542
0.0731588
0.0731633