/*--------------------------------*- C++ -*----------------------------------*\
| =========                 |                                                 |
| \\      /  F ield         | OpenFOAM: The Open Source CFD Toolbox           |
|  \\    /   O peration     | Version:  2506                                  |
|   \\  /    A nd           | Website:  www.openfoam.com                      |
|    \\/     M anipulation  |                                                 |
\*---------------------------------------------------------------------------*/
FoamFile
{
    version     2.0;
    format      ascii;
    arch        "LSB;label=32;scalar=64";
    class       volScalarField;
    location    "900";
    object      p;
}
// * * * * * * * * * * * * * * * * * * * * * * * * * * * * * * * * * * * * * //

dimensions      [0 2 -2 0 0 0 0];

internalField   nonuniform List<scalar> 
131949
(
-32.7252
-25.1168
-21.4383
-20.068
-18.8402
-17.6949
-16.7859
-16.037
-15.3782
-14.791
-14.2653
-13.7894
-13.3541
-12.9533
-12.5819
-12.2359
-11.9122
-11.6081
-11.3214
-11.0501
-10.7929
-10.5482
-10.3151
-10.0923
-9.87917
-9.67483
-9.47862
-9.28993
-9.10822
-8.93302
-8.76389
-8.60043
-8.4423
-8.28917
-8.14074
-7.99676
-7.85697
-7.72115
-7.5891
-7.46061
-7.33552
-7.21366
-7.09488
-6.97903
-6.86599
-6.75564
-6.64785
-6.54252
-6.43956
-6.33886
-6.24033
-6.14391
-6.04949
-5.95702
-5.86642
-5.77762
-5.69057
-5.60519
-5.52145
-5.43928
-5.35863
-5.27946
-5.20172
-5.12536
-5.05034
-4.97663
-4.90419
-4.83298
-4.76296
-4.69411
-4.62639
-4.55977
-4.49422
-4.42972
-4.36623
-4.30374
-4.24221
-4.18163
-4.12197
-4.06321
-4.00533
-3.94831
-3.89213
-3.83677
-3.78221
-3.72844
-3.67543
-3.62318
-3.57167
-3.52087
-3.47079
-3.42139
-3.37268
-3.32463
-3.27724
-3.23048
-3.18436
-3.13885
-3.09395
-3.04964
-3.00592
-2.96278
-2.9202
-2.87817
-2.83669
-2.79575
-2.75534
-2.71544
-2.67606
-2.63718
-2.59879
-2.56089
-2.52348
-2.48653
-2.45005
-2.41404
-2.37847
-2.34335
-2.30867
-2.27442
-2.2406
-2.20721
-2.17423
-2.14166
-2.10949
-2.07773
-2.04636
-2.01538
-1.98479
-1.95457
-1.92473
-1.89526
-1.86616
-1.83742
-1.80904
-1.78101
-1.75333
-1.726
-1.699
-1.67235
-1.64603
-1.62004
-1.59437
-1.56903
-1.54401
-1.5193
-1.4949
-1.47082
-1.44704
-1.42356
-1.40039
-1.37751
-1.35492
-1.33262
-1.31061
-1.28889
-1.26744
-1.24628
-1.22539
-1.20477
-1.18443
-1.16435
-1.14454
-1.12499
-1.1057
-1.08667
-1.06789
-1.04936
-1.03109
-1.01306
-0.995273
-0.97773
-0.960428
-0.943363
-0.926534
-0.909937
-0.893571
-0.877432
-0.86152
-0.845831
-0.830363
-0.815115
-0.800083
-0.785266
-0.770661
-0.756267
-0.74208
-0.728099
-0.714322
-0.700746
-0.68737
-0.674191
-0.661207
-0.648417
-0.635817
-0.623406
-0.611182
-0.599143
-0.587286
-0.575611
-0.564114
-0.552793
-0.541648
-0.530675
-0.519873
-0.50924
-0.498774
-0.488472
-0.478334
-0.468356
-0.458538
-0.448877
-0.439372
-0.43002
-0.42082
-0.41177
-0.402868
-0.394112
-0.385501
-0.377032
-0.368705
-0.360516
-0.352465
-0.34455
-0.336768
-0.329119
-0.321601
-0.314211
-0.306949
-0.299813
-0.2928
-0.28591
-0.279141
-0.272491
-0.265959
-0.259543
-0.253242
-0.247054
-0.240977
-0.235011
-0.229153
-0.223402
-0.217757
-0.212216
-0.206779
-0.201442
-0.196206
-0.191069
-0.186029
-0.181085
-0.176236
-0.17148
-0.166816
-0.162243
-0.15776
-0.153365
-0.149057
-0.144834
-0.140697
-0.136642
-0.13267
-0.128779
-0.124968
-0.121236
-0.117581
-0.114003
-0.110499
-0.107071
-0.103715
-0.100431
-0.0972184
-0.0940756
-0.0910017
-0.0879956
-0.0850563
-0.0821829
-0.0793742
-0.0766294
-0.0739474
-0.0713272
-0.068768
-0.0662688
-0.0638285
-0.0614464
-0.0591215
-0.0568528
-0.0546395
-0.0524807
-0.0503755
-0.048323
-0.0463224
-0.0443729
-0.0424735
-0.0406235
-0.0388221
-0.0370683
-0.0353615
-0.0337009
-0.0320855
-0.0305148
-0.0289878
-0.0275039
-0.0260623
-0.0246622
-0.023303
-0.0219838
-0.020704
-0.0194629
-0.0182598
-0.0170939
-0.0159647
-0.0148714
-0.0138133
-0.0127898
-0.0118003
-0.0108441
-0.00992061
-0.00902914
-0.0081691
-0.00733989
-0.0065409
-0.00577153
-0.00503121
-0.00431934
-0.00363536
-0.00297871
-0.00234882
-0.00174514
-0.00116714
-0.000614271
-8.6012e-05
0.000418161
0.000898763
0.0013563
0.00179128
0.00220419
0.00259552
0.00296576
0.00331537
0.00364483
0.0039546
0.00424514
0.00451689
0.00477031
0.00500583
0.00522389
0.00542491
0.00560932
0.00577754
0.00592997
0.00606702
0.00618911
0.00629662
0.00638994
0.00646948
0.00653562
0.00658873
0.00662919
0.00665738
0.00667367
0.00667842
0.00667201
0.00665479
0.00662712
0.00658936
0.00654188
0.00648501
0.00641912
0.00634457
0.0062617
0.00617087
0.00607243
0.00596674
0.00585416
0.00573505
0.00560977
0.0054787
0.0053422
0.00520066
0.00505446
0.004904
0.00474969
0.00459194
0.00443118
0.00426787
0.00410245
0.00393543
0.00376729
0.00359859
0.00342987
0.00326175
0.00309487
0.00292989
0.00276774
0.00260834
0.00245717
0.00229288
0.00222102
0.00174655
0.00367983
-25.1766
-22.6117
-20.6463
-19.4924
-18.4534
-17.4695
-16.6338
-15.9219
-15.2904
-14.7226
-14.2102
-13.7439
-13.316
-12.9209
-12.554
-12.2116
-11.8909
-11.5892
-11.3045
-11.035
-10.7792
-10.5359
-10.3038
-10.082
-9.86969
-9.66609
-9.47053
-9.28243
-9.10124
-8.92651
-8.7578
-8.59473
-8.43694
-8.28413
-8.13599
-7.99227
-7.85273
-7.71713
-7.58528
-7.45698
-7.33207
-7.21037
-7.09174
-6.97604
-6.86313
-6.7529
-6.64523
-6.54001
-6.43714
-6.33654
-6.2381
-6.14176
-6.04743
-5.95503
-5.8645
-5.77577
-5.68878
-5.60346
-5.51978
-5.43766
-5.35706
-5.27794
-5.20024
-5.12393
-5.04896
-4.97529
-4.90288
-4.83171
-4.76173
-4.69291
-4.62522
-4.55863
-4.49311
-4.42863
-4.36518
-4.30271
-4.24121
-4.18065
-4.12102
-4.06228
-4.00442
-3.94742
-3.89126
-3.83592
-3.78138
-3.72762
-3.67464
-3.6224
-3.5709
-3.52012
-3.47005
-3.42067
-3.37197
-3.32394
-3.27656
-3.22981
-3.1837
-3.13821
-3.09332
-3.04902
-3.00531
-2.96218
-2.91961
-2.87759
-2.83612
-2.79519
-2.75478
-2.7149
-2.67552
-2.63665
-2.59827
-2.56038
-2.52297
-2.48604
-2.44957
-2.41356
-2.378
-2.34288
-2.30821
-2.27397
-2.24016
-2.20677
-2.17379
-2.14123
-2.10907
-2.07731
-2.04595
-2.01497
-1.98438
-1.95417
-1.92434
-1.89488
-1.86578
-1.83704
-1.80866
-1.78064
-1.75296
-1.72563
-1.69865
-1.672
-1.64568
-1.61969
-1.59403
-1.56869
-1.54367
-1.51897
-1.49458
-1.4705
-1.44672
-1.42325
-1.40007
-1.3772
-1.35461
-1.33232
-1.31031
-1.28859
-1.26715
-1.24599
-1.2251
-1.20449
-1.18415
-1.16407
-1.14426
-1.12472
-1.10543
-1.0864
-1.06762
-1.0491
-1.03083
-1.0128
-0.995017
-0.977477
-0.960178
-0.943116
-0.926288
-0.909694
-0.89333
-0.877194
-0.861284
-0.845598
-0.830133
-0.814887
-0.799857
-0.785042
-0.77044
-0.756048
-0.741863
-0.727885
-0.71411
-0.700537
-0.687163
-0.673986
-0.661004
-0.648216
-0.635618
-0.62321
-0.610988
-0.598951
-0.587097
-0.575423
-0.563928
-0.55261
-0.541467
-0.530496
-0.519696
-0.509065
-0.498601
-0.488301
-0.478165
-0.46819
-0.458373
-0.448715
-0.439211
-0.429861
-0.420663
-0.411615
-0.402715
-0.393961
-0.385352
-0.376885
-0.368559
-0.360372
-0.352323
-0.34441
-0.33663
-0.328983
-0.321466
-0.314079
-0.306818
-0.299683
-0.292673
-0.285784
-0.279017
-0.272369
-0.265838
-0.259424
-0.253124
-0.246937
-0.240862
-0.234897
-0.229041
-0.223292
-0.217648
-0.212109
-0.206673
-0.201338
-0.196104
-0.190968
-0.185929
-0.180986
-0.176139
-0.171384
-0.166722
-0.16215
-0.157668
-0.153274
-0.148968
-0.144747
-0.14061
-0.136557
-0.132587
-0.128697
-0.124887
-0.121156
-0.117502
-0.113925
-0.110423
-0.106995
-0.103641
-0.100358
-0.0971463
-0.0940046
-0.0909318
-0.0879268
-0.0849886
-0.0821162
-0.0793086
-0.0765648
-0.0738838
-0.0712647
-0.0687064
-0.0662082
-0.0637689
-0.0613877
-0.0590638
-0.056796
-0.0545836
-0.0524258
-0.0503215
-0.0482699
-0.0462702
-0.0443215
-0.0424231
-0.0405739
-0.0387733
-0.0370204
-0.0353145
-0.0336546
-0.0320401
-0.0304702
-0.028944
-0.0274609
-0.02602
-0.0246207
-0.0232622
-0.0219438
-0.0206648
-0.0194244
-0.018222
-0.0170569
-0.0159283
-0.0148357
-0.0137783
-0.0127555
-0.0117667
-0.0108111
-0.00988828
-0.00899745
-0.00813805
-0.00730947
-0.0065111
-0.00574234
-0.00500262
-0.00429135
-0.00360796
-0.00295188
-0.00232257
-0.00171945
-0.00114201
-0.000589691
-6.19744e-05
0.000441664
0.000921738
0.00137876
0.00181322
0.00222562
0.00261646
0.0029862
0.00333532
0.00366431
0.0039736
0.00426367
0.00453497
0.00478793
0.005023
0.00524062
0.0054412
0.00562518
0.00579296
0.00594497
0.00608161
0.00620328
0.00631039
0.00640331
0.00648245
0.00654819
0.00660091
0.00664099
0.00666879
0.0066847
0.00668908
0.00668229
0.0066647
0.00663666
0.00659854
0.00655068
0.00649345
0.0064272
0.00635228
0.00626904
0.00617784
0.00607904
0.00597298
0.00586003
0.00574054
0.00561488
0.00548342
0.00534653
0.00520458
0.00505797
0.0049071
0.00475235
0.00459416
0.00443294
0.00426914
0.00410323
0.00393567
0.00376698
0.00359769
0.00342834
0.00325955
0.00309193
0.00292617
0.00276311
0.00260297
0.00244968
0.00228879
0.00219468
0.00183681
0.00336798
-21.9664
-21.1657
-19.9272
-18.8788
-17.9828
-17.1493
-16.4003
-15.7391
-15.1456
-14.6064
-14.1147
-13.6641
-13.2484
-12.8628
-12.5036
-12.1676
-11.852
-11.5547
-11.2736
-11.0072
-10.7541
-10.513
-10.2829
-10.0629
-9.85211
-9.64986
-9.4555
-9.26847
-9.08825
-8.91439
-8.74646
-8.58409
-8.42695
-8.27472
-8.12712
-7.98389
-7.84479
-7.70961
-7.57814
-7.4502
-7.32561
-7.20422
-7.08587
-6.97043
-6.85777
-6.74777
-6.64031
-6.53529
-6.43262
-6.33219
-6.23392
-6.13773
-6.04355
-5.95129
-5.86089
-5.77228
-5.68541
-5.60021
-5.51663
-5.43462
-5.35412
-5.27508
-5.19747
-5.12124
-5.04635
-4.97276
-4.90042
-4.82932
-4.7594
-4.69065
-4.62302
-4.55648
-4.49102
-4.4266
-4.36319
-4.30077
-4.23932
-4.17881
-4.11922
-4.06052
-4.0027
-3.94574
-3.88962
-3.83431
-3.77981
-3.72609
-3.67313
-3.62093
-3.56946
-3.51871
-3.46866
-3.41931
-3.37064
-3.32263
-3.27527
-3.22856
-3.18247
-3.13699
-3.09213
-3.04785
-3.00416
-2.96105
-2.9185
-2.8765
-2.83505
-2.79413
-2.75374
-2.71387
-2.67451
-2.63566
-2.5973
-2.55942
-2.52203
-2.4851
-2.44865
-2.41265
-2.3771
-2.342
-2.30734
-2.27311
-2.23931
-2.20593
-2.17297
-2.14042
-2.10827
-2.07652
-2.04516
-2.0142
-1.98362
-1.95342
-1.92359
-1.89414
-1.86505
-1.83632
-1.80795
-1.77994
-1.75227
-1.72495
-1.69797
-1.67132
-1.64501
-1.61903
-1.59338
-1.56805
-1.54304
-1.51834
-1.49396
-1.46988
-1.44611
-1.42264
-1.39948
-1.37661
-1.35403
-1.33174
-1.30974
-1.28802
-1.26659
-1.24543
-1.22455
-1.20395
-1.18361
-1.16354
-1.14374
-1.12419
-1.10491
-1.08589
-1.06712
-1.0486
-1.03033
-1.01231
-0.994531
-0.976996
-0.959701
-0.942644
-0.925821
-0.909232
-0.892873
-0.876741
-0.860836
-0.845154
-0.829694
-0.814452
-0.799427
-0.784617
-0.770019
-0.755631
-0.741451
-0.727477
-0.713706
-0.700137
-0.686768
-0.673595
-0.660618
-0.647834
-0.63524
-0.622836
-0.610618
-0.598585
-0.586735
-0.575066
-0.563575
-0.552261
-0.541122
-0.530155
-0.519359
-0.508732
-0.498271
-0.487976
-0.477843
-0.467872
-0.45806
-0.448405
-0.438905
-0.429559
-0.420365
-0.41132
-0.402424
-0.393673
-0.385068
-0.376605
-0.368282
-0.360099
-0.352053
-0.344143
-0.336367
-0.328723
-0.32121
-0.313826
-0.306569
-0.299437
-0.29243
-0.285545
-0.278781
-0.272136
-0.265608
-0.259197
-0.2529
-0.246717
-0.240645
-0.234683
-0.228829
-0.223083
-0.217443
-0.211906
-0.206473
-0.201141
-0.195909
-0.190776
-0.18574
-0.1808
-0.175955
-0.171203
-0.166543
-0.161974
-0.157495
-0.153104
-0.148799
-0.144581
-0.140447
-0.136396
-0.132428
-0.128541
-0.124733
-0.121004
-0.117353
-0.113778
-0.110278
-0.106853
-0.1035
-0.10022
-0.0970103
-0.0938707
-0.0907999
-0.087797
-0.0848608
-0.0819905
-0.0791849
-0.076443
-0.073764
-0.0711468
-0.0685905
-0.0660942
-0.0636568
-0.0612775
-0.0589553
-0.0566894
-0.0544788
-0.0523227
-0.0502201
-0.0481703
-0.0461723
-0.0442254
-0.0423286
-0.0404811
-0.0386821
-0.0369308
-0.0352265
-0.0335682
-0.0319553
-0.0303868
-0.0288622
-0.0273806
-0.0259412
-0.0245434
-0.0231864
-0.0218694
-0.0205918
-0.0193528
-0.0181518
-0.016988
-0.0158608
-0.0147695
-0.0137135
-0.012692
-0.0117044
-0.0107502
-0.00982854
-0.00893895
-0.00808077
-0.00725339
-0.0064562
-0.00568862
-0.00495006
-0.00423993
-0.00355767
-0.0029027
-0.00227448
-0.00167245
-0.00109607
-0.00054481
-1.81325e-05
0.000484481
0.000963544
0.00141956
0.00185304
0.00226448
0.00265435
0.00302315
0.00337135
0.00369941
0.0040078
0.00429697
0.00456738
0.00481948
0.00505369
0.00527045
0.0054702
0.00565335
0.00582032
0.00597152
0.00610736
0.00622825
0.00633457
0.00642673
0.00650511
0.00657009
0.00662207
0.0066614
0.00668848
0.00670366
0.00670732
0.00669982
0.00668151
0.00665277
0.00661394
0.00656539
0.00650746
0.00644051
0.0063649
0.00628096
0.00618907
0.00608956
0.00598279
0.00586913
0.00574892
0.00562254
0.00549034
0.0053527
0.00520999
0.00506261
0.00491093
0.00475536
0.00459631
0.00443422
0.0042695
0.00410263
0.00393408
0.00376433
0.00359392
0.00342339
0.00325332
0.00308433
0.00291707
0.00275234
0.00259042
0.00243473
0.00227245
0.00217004
0.00182458
0.00328232
-20.0902
-19.7267
-18.9399
-18.1349
-17.4136
-16.7269
-16.0793
-15.4859
-14.9422
-14.441
-13.9779
-13.5491
-13.1504
-12.7785
-12.4303
-12.1032
-11.7951
-11.504
-11.2282
-10.9662
-10.717
-10.4792
-10.252
-10.0345
-9.82598
-9.62572
-9.43313
-9.24768
-9.06888
-8.89629
-8.72951
-8.56819
-8.412
-8.26064
-8.11383
-7.97133
-7.8329
-7.69834
-7.56744
-7.44002
-7.31592
-7.19498
-7.07705
-6.96201
-6.84971
-6.74005
-6.63291
-6.5282
-6.4258
-6.32564
-6.22762
-6.13167
-6.0377
-5.94566
-5.85545
-5.76704
-5.68034
-5.59531
-5.51189
-5.43003
-5.34967
-5.27078
-5.1933
-5.11719
-5.04242
-4.96894
-4.89671
-4.82571
-4.75589
-4.68723
-4.61969
-4.55325
-4.48787
-4.42353
-4.36019
-4.29785
-4.23647
-4.17602
-4.1165
-4.05787
-4.00011
-3.9432
-3.88714
-3.83189
-3.77743
-3.72376
-3.67085
-3.6187
-3.56727
-3.51657
-3.46657
-3.41726
-3.36862
-3.32065
-3.27333
-3.22665
-3.1806
-3.13516
-3.09032
-3.04608
-3.00242
-2.95934
-2.91681
-2.87485
-2.83342
-2.79253
-2.75217
-2.71232
-2.67299
-2.63416
-2.59582
-2.55796
-2.52059
-2.48369
-2.44725
-2.41127
-2.37575
-2.34066
-2.30602
-2.27181
-2.23803
-2.20467
-2.17172
-2.13918
-2.10705
-2.07532
-2.04398
-2.01303
-1.98246
-1.95228
-1.92247
-1.89303
-1.86395
-1.83524
-1.80688
-1.77888
-1.75122
-1.72391
-1.69694
-1.67031
-1.64401
-1.61804
-1.5924
-1.56708
-1.54208
-1.51739
-1.49302
-1.46895
-1.44519
-1.42173
-1.39858
-1.37571
-1.35315
-1.33087
-1.30887
-1.28717
-1.26574
-1.24459
-1.22372
-1.20312
-1.18279
-1.16273
-1.14294
-1.1234
-1.10413
-1.08511
-1.06635
-1.04784
-1.02958
-1.01156
-0.993794
-0.976267
-0.958979
-0.941929
-0.925114
-0.908532
-0.892179
-0.876055
-0.860157
-0.844482
-0.829028
-0.813794
-0.798776
-0.783972
-0.769381
-0.755
-0.740826
-0.726859
-0.713095
-0.699532
-0.686169
-0.673003
-0.660032
-0.647255
-0.634668
-0.62227
-0.610058
-0.598032
-0.586188
-0.574524
-0.56304
-0.551732
-0.540599
-0.529638
-0.518848
-0.508227
-0.497773
-0.487483
-0.477356
-0.467391
-0.457584
-0.447935
-0.438441
-0.429101
-0.419912
-0.410873
-0.401982
-0.393238
-0.384637
-0.37618
-0.367863
-0.359685
-0.351644
-0.34374
-0.335969
-0.32833
-0.320822
-0.313443
-0.306191
-0.299064
-0.292062
-0.285182
-0.278422
-0.271782
-0.26526
-0.258853
-0.252561
-0.246382
-0.240315
-0.234357
-0.228508
-0.222767
-0.21713
-0.211598
-0.206169
-0.200842
-0.195614
-0.190485
-0.185453
-0.180517
-0.175676
-0.170928
-0.166273
-0.161707
-0.157232
-0.152844
-0.148544
-0.144329
-0.140199
-0.136152
-0.132187
-0.128304
-0.1245
-0.120774
-0.117126
-0.113555
-0.110058
-0.106636
-0.103287
-0.10001
-0.0968037
-0.0936673
-0.0905998
-0.0876
-0.0846669
-0.0817996
-0.078997
-0.0762582
-0.0735821
-0.0709679
-0.0684145
-0.065921
-0.0634864
-0.0611099
-0.0587906
-0.0565274
-0.0543195
-0.0521661
-0.0500662
-0.048019
-0.0460236
-0.0440792
-0.0421849
-0.0403399
-0.0385435
-0.0367946
-0.0350927
-0.0334368
-0.0318262
-0.0302602
-0.0287378
-0.0272585
-0.0258214
-0.0244258
-0.023071
-0.0217562
-0.0204807
-0.0192439
-0.0180449
-0.0168832
-0.0157581
-0.0146688
-0.0136147
-0.0125952
-0.0116096
-0.0106573
-0.00973754
-0.00884983
-0.00799349
-0.00716794
-0.00637255
-0.00560675
-0.00486994
-0.00416154
-0.00348098
-0.0028277
-0.00220114
-0.00160075
-0.00102599
-0.000476321
4.87835e-05
0.000549844
0.00102738
0.00148189
0.00191388
0.00232384
0.00271227
0.00307963
0.00342642
0.00375309
0.0040601
0.00434793
0.004617
0.00486777
0.00510069
0.00531617
0.00551464
0.00569654
0.00586227
0.00601226
0.00614689
0.00626658
0.00637173
0.00646272
0.00653995
0.00660379
0.00665464
0.00669285
0.00671882
0.00673291
0.00673548
0.00672689
0.00670751
0.0066777
0.00663781
0.0065882
0.00652922
0.00646121
0.00638454
0.00629956
0.0062066
0.00610604
0.00599821
0.00588347
0.00576218
0.0056347
0.00550139
0.00536262
0.00521876
0.00507019
0.00491731
0.0047605
0.00460018
0.00443676
0.00427067
0.00410236
0.0039323
0.00376098
0.00358889
0.00341658
0.00324461
0.00307357
0.00290409
0.00273693
0.00257235
0.0024135
0.00224828
0.00213957
0.00179627
0.00321156
-18.6909
-18.4945
-18.0048
-17.4171
-16.8396
-16.2707
-15.7164
-15.1917
-14.7004
-14.2402
-13.8092
-13.4056
-13.0273
-12.6717
-12.3369
-12.021
-11.7221
-11.4387
-11.1695
-10.9133
-10.6689
-10.4354
-10.2119
-9.99765
-9.79199
-9.59428
-9.40396
-9.22054
-9.04357
-8.87262
-8.70734
-8.54737
-8.39241
-8.24217
-8.0964
-7.95484
-7.81728
-7.68352
-7.55336
-7.42663
-7.30316
-7.18281
-7.06544
-6.9509
-6.83909
-6.72987
-6.62316
-6.51883
-6.41681
-6.31699
-6.2193
-6.12366
-6.02998
-5.93821
-5.84827
-5.7601
-5.67364
-5.58883
-5.50562
-5.42395
-5.34379
-5.26507
-5.18777
-5.11182
-5.03721
-4.96387
-4.89179
-4.82093
-4.75124
-4.6827
-4.61528
-4.54895
-4.48368
-4.41945
-4.35622
-4.29397
-4.23268
-4.17233
-4.11289
-4.05434
-3.99666
-3.93984
-3.88384
-3.82866
-3.77428
-3.72067
-3.66783
-3.61574
-3.56437
-3.51373
-3.46378
-3.41452
-3.36594
-3.31802
-3.27075
-3.22412
-3.17811
-3.13271
-3.08792
-3.04372
-3.00011
-2.95706
-2.91458
-2.87264
-2.83126
-2.7904
-2.75007
-2.71026
-2.67096
-2.63216
-2.59385
-2.55602
-2.51868
-2.48181
-2.4454
-2.40944
-2.37394
-2.33889
-2.30427
-2.27008
-2.23632
-2.20298
-2.17006
-2.13754
-2.10543
-2.07372
-2.0424
-2.01147
-1.98093
-1.95076
-1.92097
-1.89154
-1.86248
-1.83379
-1.80545
-1.77746
-1.74982
-1.72253
-1.69557
-1.66896
-1.64267
-1.61672
-1.59109
-1.56578
-1.5408
-1.51612
-1.49176
-1.46771
-1.44396
-1.42052
-1.39737
-1.37452
-1.35197
-1.3297
-1.30772
-1.28603
-1.26461
-1.24347
-1.22261
-1.20203
-1.18171
-1.16166
-1.14187
-1.12235
-1.10309
-1.08408
-1.06533
-1.04683
-1.02858
-1.01057
-0.992811
-0.975294
-0.958016
-0.940976
-0.92417
-0.907597
-0.891254
-0.87514
-0.859251
-0.843585
-0.828141
-0.812915
-0.797906
-0.783111
-0.768529
-0.754157
-0.739993
-0.726034
-0.712279
-0.698725
-0.685371
-0.672213
-0.659251
-0.646482
-0.633903
-0.621514
-0.609311
-0.597292
-0.585457
-0.573802
-0.562326
-0.551026
-0.539901
-0.528948
-0.518166
-0.507553
-0.497107
-0.486825
-0.476706
-0.466748
-0.45695
-0.447308
-0.437822
-0.428489
-0.419308
-0.410276
-0.401393
-0.392656
-0.384063
-0.375612
-0.367303
-0.359132
-0.351099
-0.343201
-0.335437
-0.327805
-0.320304
-0.312931
-0.305686
-0.298566
-0.291571
-0.284697
-0.277944
-0.27131
-0.264794
-0.258394
-0.252108
-0.245935
-0.239874
-0.233923
-0.22808
-0.222344
-0.216714
-0.211187
-0.205764
-0.200442
-0.19522
-0.190096
-0.18507
-0.18014
-0.175304
-0.170562
-0.165911
-0.161351
-0.156881
-0.152498
-0.148203
-0.143993
-0.139868
-0.135826
-0.131866
-0.127987
-0.124188
-0.120467
-0.116824
-0.113257
-0.109765
-0.106347
-0.103003
-0.0997298
-0.0965279
-0.0933958
-0.0903325
-0.0873369
-0.0844079
-0.0815447
-0.0787462
-0.0760114
-0.0733393
-0.070729
-0.0681794
-0.0656898
-0.063259
-0.0608862
-0.0585706
-0.056311
-0.0541068
-0.0519569
-0.0498606
-0.0478169
-0.045825
-0.043884
-0.0419931
-0.0401515
-0.0383583
-0.0366127
-0.034914
-0.0332613
-0.0316539
-0.030091
-0.0285717
-0.0270954
-0.0256614
-0.0242687
-0.0229168
-0.0216049
-0.0203323
-0.0190983
-0.0179022
-0.0167433
-0.0156209
-0.0145343
-0.0134829
-0.012466
-0.011483
-0.0105332
-0.009616
-0.00873078
-0.00787691
-0.00705379
-0.00626081
-0.00549737
-0.0047629
-0.00405681
-0.00337853
-0.0027275
-0.00210316
-0.00150496
-0.000932353
-0.000384813
0.00013819
0.000637179
0.00111267
0.00156516
0.00199516
0.00240317
0.00278966
0.00315511
0.00350002
0.00382483
0.00413001
0.00441603
0.00468332
0.00493233
0.00516351
0.00537727
0.00557406
0.00575428
0.00591837
0.00606672
0.00619974
0.00631785
0.00642142
0.00651086
0.00658655
0.00664887
0.00669821
0.00673494
0.00675943
0.00677205
0.00677316
0.00676313
0.00674233
0.00671109
0.00666978
0.00661876
0.00655837
0.00648896
0.00641089
0.0063245
0.00623014
0.00612816
0.00601891
0.00590274
0.00578001
0.00565107
0.00551628
0.00537601
0.00523062
0.00508049
0.00492601
0.00476756
0.00460554
0.00444036
0.00427245
0.00410224
0.0039302
0.00375678
0.00358249
0.00340783
0.00323336
0.00305965
0.00288727
0.00271697
0.00254896
0.00238625
0.00221718
0.00210228
0.00175992
0.00312729
-17.6015
-17.4856
-17.1639
-16.7297
-16.2685
-15.7987
-15.3281
-14.8696
-14.4303
-14.012
-13.6148
-13.2386
-12.8825
-12.5454
-12.2258
-11.9225
-11.6344
-11.3601
-11.0987
-10.8492
-10.6106
-10.3821
-10.163
-9.95271
-9.7505
-9.55586
-9.36828
-9.18732
-9.01255
-8.84361
-8.68013
-8.5218
-8.36834
-8.21947
-8.07495
-7.93454
-7.79805
-7.66526
-7.53601
-7.41011
-7.28743
-7.1678
-7.0511
-6.93719
-6.82596
-6.7173
-6.61109
-6.50725
-6.40568
-6.30629
-6.20901
-6.11374
-6.02042
-5.92899
-5.83937
-5.7515
-5.66533
-5.58079
-5.49784
-5.41642
-5.33649
-5.25799
-5.1809
-5.10516
-5.03074
-4.95759
-4.88568
-4.81499
-4.74546
-4.67708
-4.60981
-4.54362
-4.47848
-4.41438
-4.35127
-4.28915
-4.22797
-4.16773
-4.1084
-4.04995
-3.99237
-3.93564
-3.87974
-3.82465
-3.77035
-3.71683
-3.66407
-3.61205
-3.56076
-3.51018
-3.46031
-3.41112
-3.3626
-3.31474
-3.26753
-3.22096
-3.17501
-3.12967
-3.08493
-3.04078
-2.99722
-2.95422
-2.91178
-2.8699
-2.82855
-2.78774
-2.74746
-2.70769
-2.66842
-2.62966
-2.59139
-2.5536
-2.51629
-2.47945
-2.44308
-2.40716
-2.37169
-2.33667
-2.30208
-2.26792
-2.23419
-2.20088
-2.16798
-2.1355
-2.10341
-2.07172
-2.04043
-2.00952
-1.979
-1.94886
-1.91909
-1.88969
-1.86065
-1.83198
-1.80366
-1.77569
-1.74807
-1.7208
-1.69386
-1.66727
-1.641
-1.61506
-1.58945
-1.56416
-1.53919
-1.51454
-1.49019
-1.46616
-1.44243
-1.419
-1.39587
-1.37304
-1.35049
-1.32824
-1.30628
-1.2846
-1.2632
-1.24207
-1.22123
-1.20065
-1.18035
-1.16031
-1.14054
-1.12103
-1.10178
-1.08279
-1.06405
-1.04556
-1.02732
-1.00933
-0.991581
-0.974076
-0.956811
-0.939782
-0.922989
-0.906427
-0.890097
-0.873994
-0.858116
-0.842462
-0.827029
-0.811815
-0.796817
-0.782034
-0.767463
-0.753102
-0.738949
-0.725001
-0.711257
-0.697714
-0.68437
-0.671224
-0.658272
-0.645514
-0.632946
-0.620567
-0.608375
-0.596367
-0.584542
-0.572897
-0.561431
-0.550141
-0.539026
-0.528084
-0.517312
-0.506709
-0.496272
-0.486001
-0.475892
-0.465944
-0.456155
-0.446523
-0.437046
-0.427723
-0.418551
-0.409529
-0.400655
-0.391927
-0.383343
-0.374902
-0.366601
-0.358439
-0.350415
-0.342526
-0.334771
-0.327148
-0.319655
-0.312291
-0.305054
-0.297943
-0.290955
-0.28409
-0.277345
-0.270719
-0.264211
-0.257819
-0.251541
-0.245376
-0.239322
-0.233378
-0.227543
-0.221814
-0.216191
-0.210673
-0.205256
-0.199941
-0.194726
-0.18961
-0.184591
-0.179667
-0.174838
-0.170102
-0.165458
-0.160905
-0.156441
-0.152065
-0.147776
-0.143572
-0.139453
-0.135418
-0.131464
-0.127591
-0.123797
-0.120082
-0.116445
-0.112884
-0.109397
-0.105985
-0.102646
-0.0993789
-0.0961824
-0.0930556
-0.0899976
-0.0870072
-0.0840835
-0.0812254
-0.0784319
-0.0757021
-0.073035
-0.0704295
-0.0678849
-0.0654
-0.062974
-0.0606059
-0.0582949
-0.0560399
-0.0538402
-0.0516949
-0.049603
-0.0475636
-0.045576
-0.0436393
-0.0417527
-0.0399153
-0.0381262
-0.0363848
-0.0346901
-0.0330414
-0.031438
-0.0298789
-0.0283635
-0.0268911
-0.0254607
-0.0240718
-0.0227236
-0.0214154
-0.0201464
-0.0189159
-0.0177233
-0.0165678
-0.0154488
-0.0143656
-0.0133176
-0.012304
-0.0113242
-0.0103776
-0.00946362
-0.00858153
-0.00773075
-0.00691068
-0.0061207
-0.00536024
-0.0046287
-0.0039255
-0.00325007
-0.00260186
-0.00198029
-0.00138483
-0.000814929
-0.000270056
0.000250317
0.000746711
0.00121964
0.00166961
0.00209712
0.00250267
0.00288673
0.0032498
0.00359234
0.00391483
0.00421772
0.00450147
0.00476653
0.00501334
0.00524234
0.00545396
0.00564862
0.00582676
0.00598877
0.00613509
0.0062661
0.00638221
0.00648381
0.0065713
0.00664507
0.00670549
0.00675294
0.0067878
0.00681044
0.00682123
0.00682053
0.0068087
0.0067861
0.00675308
0.00671
0.00665721
0.00659506
0.0065239
0.00644408
0.00635593
0.00625981
0.00615607
0.00604505
0.00592709
0.00580256
0.0056718
0.00553517
0.00539302
0.00524573
0.00509365
0.00493718
0.00477668
0.00461255
0.00444519
0.00427502
0.00410246
0.00392795
0.00375194
0.00357492
0.00339738
0.00321984
0.00304284
0.00286694
0.00269281
0.00252069
0.00235341
0.00217974
0.00205808
0.00171628
0.0030283
-16.7117
-16.6347
-16.4095
-16.0832
-15.7156
-15.328
-14.9295
-14.5314
-14.1417
-13.7642
-13.401
-13.0528
-12.7201
-12.4024
-12.0992
-11.8099
-11.5335
-11.2694
-11.0167
-10.7747
-10.5427
-10.32
-10.106
-9.90012
-9.70189
-9.51079
-9.32638
-9.14827
-8.97607
-8.80944
-8.64807
-8.49166
-8.33995
-8.19268
-8.04962
-7.91056
-7.77531
-7.64367
-7.51547
-7.39057
-7.26879
-7.15001
-7.0341
-6.92094
-6.8104
-6.70238
-6.59678
-6.49351
-6.39247
-6.29359
-6.19677
-6.10196
-6.00906
-5.91803
-5.82878
-5.74127
-5.65544
-5.57122
-5.48858
-5.40745
-5.3278
-5.24957
-5.17272
-5.09722
-5.02303
-4.9501
-4.8784
-4.8079
-4.73857
-4.67037
-4.60327
-4.53725
-4.47228
-4.40833
-4.34537
-4.28339
-4.22235
-4.16224
-4.10303
-4.04471
-3.98725
-3.93063
-3.87484
-3.81985
-3.76566
-3.71223
-3.65957
-3.60764
-3.55644
-3.50595
-3.45616
-3.40705
-3.35861
-3.31082
-3.26369
-3.21718
-3.1713
-3.12603
-3.08135
-3.03727
-2.99376
-2.95082
-2.90844
-2.86661
-2.82532
-2.78456
-2.74432
-2.7046
-2.66539
-2.62667
-2.58844
-2.5507
-2.51344
-2.47664
-2.4403
-2.40442
-2.36899
-2.334
-2.29945
-2.26533
-2.23164
-2.19836
-2.1655
-2.13304
-2.10099
-2.06933
-2.03807
-2.00719
-1.9767
-1.94658
-1.91684
-1.88746
-1.85845
-1.8298
-1.80151
-1.77357
-1.74597
-1.71872
-1.69181
-1.66524
-1.63899
-1.61308
-1.58749
-1.56222
-1.53727
-1.51264
-1.48831
-1.4643
-1.44058
-1.41717
-1.39406
-1.37125
-1.34872
-1.32649
-1.30454
-1.28288
-1.2615
-1.24039
-1.21956
-1.199
-1.17872
-1.1587
-1.13894
-1.11945
-1.10021
-1.08123
-1.06251
-1.04404
-1.02581
-1.00784
-0.990103
-0.972612
-0.955361
-0.938347
-0.921568
-0.905021
-0.888705
-0.872616
-0.856752
-0.841112
-0.825693
-0.810492
-0.795508
-0.780739
-0.766181
-0.751833
-0.737693
-0.723759
-0.710028
-0.696498
-0.683168
-0.670034
-0.657096
-0.64435
-0.631795
-0.619428
-0.607249
-0.595253
-0.583441
-0.571809
-0.560355
-0.549078
-0.537975
-0.527045
-0.516285
-0.505694
-0.495269
-0.485009
-0.474912
-0.464976
-0.455199
-0.445578
-0.436113
-0.426801
-0.417641
-0.40863
-0.399767
-0.39105
-0.382477
-0.374047
-0.365757
-0.357606
-0.349592
-0.341714
-0.333969
-0.326356
-0.318874
-0.31152
-0.304294
-0.297192
-0.290215
-0.283359
-0.276624
-0.270008
-0.263509
-0.257127
-0.250858
-0.244702
-0.238658
-0.232723
-0.226897
-0.221177
-0.215563
-0.210053
-0.204645
-0.199339
-0.194133
-0.189024
-0.184013
-0.179098
-0.174277
-0.169549
-0.164913
-0.160368
-0.155912
-0.151543
-0.147262
-0.143066
-0.138954
-0.134926
-0.130979
-0.127113
-0.123327
-0.119619
-0.115989
-0.112434
-0.108955
-0.10555
-0.102217
-0.0989565
-0.0957665
-0.0926462
-0.0895945
-0.0866105
-0.083693
-0.080841
-0.0780537
-0.0753299
-0.0726687
-0.0700692
-0.0675303
-0.0650512
-0.0626309
-0.0602685
-0.057963
-0.0557136
-0.0535194
-0.0513794
-0.0492928
-0.0472588
-0.0452764
-0.0433449
-0.0414633
-0.0396309
-0.0378469
-0.0361103
-0.0344205
-0.0327767
-0.031178
-0.0296236
-0.0281129
-0.026645
-0.0252192
-0.0238348
-0.022491
-0.0211872
-0.0199225
-0.0186963
-0.0175079
-0.0163566
-0.0152417
-0.0141626
-0.0131185
-0.0121089
-0.011133
-0.0101903
-0.00928012
-0.0084018
-0.00755474
-0.00673833
-0.00595198
-0.00519509
-0.00446707
-0.00376735
-0.00309535
-0.00245052
-0.0018323
-0.00124013
-0.000673486
-0.000131821
0.000385388
0.000878661
0.00134851
0.00179544
0.00221996
0.00262255
0.0030037
0.0033639
0.0037036
0.00402329
0.00432342
0.00460445
0.00486682
0.00511098
0.00533736
0.0055464
0.00573852
0.00591414
0.00607367
0.00621753
0.00634612
0.00645983
0.00655907
0.00664422
0.00671567
0.00677381
0.00681899
0.00685161
0.00687203
0.00688062
0.00687773
0.00686373
0.00683898
0.00680382
0.00675862
0.00670371
0.00663945
0.00656618
0.00648425
0.006394
0.00629577
0.00618991
0.00607676
0.00595667
0.00582998
0.00569704
0.0055582
0.00541381
0.00526424
0.00510984
0.00495098
0.00478804
0.00462139
0.00445144
0.00427858
0.00410321
0.00392578
0.00374671
0.00356646
0.00338551
0.00320434
0.00302348
0.00284344
0.00266487
0.00248796
0.00231543
0.00213647
0.00200723
0.00166593
0.00291431
-15.9568
-15.9011
-15.7355
-15.485
-15.19
-14.8688
-14.5309
-14.1859
-13.8417
-13.503
-13.1726
-12.8523
-12.5432
-12.2455
-11.9595
-11.6847
-11.421
-11.1677
-10.9245
-10.6907
-10.4659
-10.2496
-10.0412
-9.84033
-9.64653
-9.45939
-9.27855
-9.10364
-8.93433
-8.77033
-8.61134
-8.4571
-8.30737
-8.16192
-8.02053
-7.88301
-7.74916
-7.61883
-7.49185
-7.36806
-7.24733
-7.12952
-7.01452
-6.9022
-6.79245
-6.68517
-6.58027
-6.47765
-6.37722
-6.27892
-6.18265
-6.08834
-5.99593
-5.90536
-5.81655
-5.72945
-5.644
-5.56016
-5.47786
-5.39707
-5.31773
-5.23981
-5.16326
-5.08803
-5.0141
-4.94142
-4.86996
-4.7997
-4.73058
-4.66259
-4.5957
-4.52987
-4.46508
-4.40131
-4.33853
-4.27671
-4.21583
-4.15587
-4.09681
-4.03863
-3.9813
-3.92482
-3.86915
-3.81428
-3.76021
-3.7069
-3.65434
-3.60252
-3.55142
-3.50103
-3.45133
-3.40231
-3.35396
-3.30627
-3.25921
-3.21279
-3.16698
-3.12179
-3.07719
-3.03317
-2.98974
-2.94686
-2.90455
-2.86278
-2.82155
-2.78086
-2.74068
-2.70101
-2.66185
-2.62319
-2.58501
-2.54732
-2.51011
-2.47336
-2.43707
-2.40123
-2.36585
-2.3309
-2.29639
-2.26231
-2.22866
-2.19542
-2.16259
-2.13018
-2.09816
-2.06654
-2.03531
-2.00447
-1.97401
-1.94392
-1.91421
-1.88487
-1.85589
-1.82727
-1.799
-1.77109
-1.74352
-1.7163
-1.68942
-1.66287
-1.63665
-1.61076
-1.5852
-1.55995
-1.53503
-1.51041
-1.48611
-1.46212
-1.43843
-1.41504
-1.39195
-1.36916
-1.34666
-1.32444
-1.30252
-1.28087
-1.25951
-1.23843
-1.21762
-1.19708
-1.17681
-1.15681
-1.13707
-1.11759
-1.09838
-1.07942
-1.06071
-1.04226
-1.02405
-1.00609
-0.988375
-0.970901
-0.953667
-0.93667
-0.919908