/*--------------------------------*- C++ -*----------------------------------*\
| =========                 |                                                 |
| \\      /  F ield         | OpenFOAM: The Open Source CFD Toolbox           |
|  \\    /   O peration     | Version:  2506                                  |
|   \\  /    A nd           | Website:  www.openfoam.com                      |
|    \\/     M anipulation  |                                                 |
\*---------------------------------------------------------------------------*/
FoamFile
{
    version     2.0;
    format      ascii;
    arch        "LSB;label=32;scalar=64";
    class       surfaceScalarField;
    location    "900";
    object      phi;
}
// * * * * * * * * * * * * * * * * * * * * * * * * * * * * * * * * * * * * * //

dimensions      [0 3 -1 0 0 0 0];

oriented        oriented;

internalField   nonuniform List<scalar> 
266147
(
0.00237347
0.000117012
0.0023151
5.83705e-05
0.00227865
3.64522e-05
0.00225492
2.37331e-05
0.0022381
1.68151e-05
0.00222486
1.32436e-05
0.00221383
1.10297e-05
0.00220438
9.44871e-06
0.0021961
8.28097e-06
0.00218871
7.38673e-06
0.00218204
6.67228e-06
0.00217596
6.08591e-06
0.00217036
5.59606e-06
0.00216518
5.18035e-06
0.00216036
4.82272e-06
0.00215584
4.5116e-06
0.00215161
4.23838e-06
0.00214761
3.99641e-06
0.00214383
3.78055e-06
0.00214024
3.58672e-06
0.00213683
3.41165e-06
0.00213358
3.2527e-06
0.00213047
3.10769e-06
0.0021275
2.97483e-06
0.00212464
2.85262e-06
0.0021219
2.7398e-06
0.00211927
2.63529e-06
0.00211673
2.53819e-06
0.00211428
2.44771e-06
0.00211192
2.36318e-06
0.00210963
2.28402e-06
0.00210743
2.2097e-06
0.00210529
2.13978e-06
0.00210321
2.07386e-06
0.0021012
2.01161e-06
0.00209925
1.9527e-06
0.00209735
1.89687e-06
0.00209551
1.84387e-06
0.00209371
1.79348e-06
0.00209197
1.74549e-06
0.00209027
1.69974e-06
0.00208861
1.65606e-06
0.002087
1.61431e-06
0.00208542
1.57435e-06
0.00208389
1.53607e-06
0.00208239
1.49935e-06
0.00208092
1.4641e-06
0.00207949
1.43021e-06
0.0020781
1.39762e-06
0.00207673
1.36623e-06
0.00207539
1.33598e-06
0.00207409
1.30681e-06
0.00207281
1.27865e-06
0.00207156
1.25144e-06
0.00207033
1.22514e-06
0.00206913
1.19969e-06
0.00206796
1.17505e-06
0.00206681
1.15118e-06
0.00206568
1.12804e-06
0.00206457
1.10559e-06
0.00206349
1.0838e-06
0.00206243
1.06264e-06
0.00206138
1.04207e-06
0.00206036
1.02208e-06
0.00205936
1.00262e-06
0.00205838
9.83687e-07
0.00205741
9.65246e-07
0.00205646
9.47279e-07
0.00205553
9.29763e-07
0.00205462
9.12681e-07
0.00205372
8.96013e-07
0.00205284
8.79743e-07
0.00205198
8.63853e-07
0.00205113
8.4833e-07
0.0020503
8.33157e-07
0.00204948
8.18321e-07
0.00204868
8.03809e-07
0.00204789
7.89608e-07
0.00204711
7.75706e-07
0.00204635
7.62093e-07
0.0020456
7.48757e-07
0.00204486
7.35688e-07
0.00204414
7.22877e-07
0.00204343
7.10314e-07
0.00204273
6.9799e-07
0.00204205
6.85897e-07
0.00204137
6.74026e-07
0.00204071
6.62371e-07
0.00204006
6.50923e-07
0.00203942
6.39676e-07
0.00203879
6.28623e-07
0.00203817
6.17757e-07
0.00203757
6.07073e-07
0.00203697
5.96564e-07
0.00203638
5.86225e-07
0.00203581
5.76049e-07
0.00203524
5.66033e-07
0.00203469
5.56171e-07
0.00203414
5.46459e-07
0.0020336
5.3689e-07
0.00203308
5.27462e-07
0.00203256
5.1817e-07
0.00203205
5.0901e-07
0.00203155
4.99978e-07
0.00203106
4.9107e-07
0.00203058
4.82282e-07
0.0020301
4.73612e-07
0.00202964
4.65055e-07
0.00202918
4.56608e-07
0.00202873
4.48269e-07
0.00202829
4.40034e-07
0.00202786
4.31901e-07
0.00202744
4.23865e-07
0.00202702
4.15926e-07
0.00202661
4.08081e-07
0.00202621
4.00326e-07
0.00202582
3.92659e-07
0.00202543
3.85079e-07
0.00202506
3.77582e-07
0.00202469
3.70168e-07
0.00202432
3.62833e-07
0.00202397
3.55576e-07
0.00202362
3.48394e-07
0.00202328
3.41287e-07
0.00202294
3.34252e-07
0.00202262
3.27287e-07
0.0020223
3.20392e-07
0.00202198
3.13564e-07
0.00202168
3.06802e-07
0.00202138
3.00104e-07
0.00202108
2.93469e-07
0.0020208
2.86896e-07
0.00202051
2.80383e-07
0.00202024
2.7393e-07
0.00201997
2.67535e-07
0.00201971
2.61197e-07
0.00201946
2.54915e-07
0.00201921
2.48688e-07
0.00201897
2.42514e-07
0.00201873
2.36394e-07
0.0020185
2.30326e-07
0.00201827
2.24309e-07
0.00201806
2.18343e-07
0.00201784
2.12426e-07
0.00201764
2.06559e-07
0.00201744
2.0074e-07
0.00201724
1.94969e-07
0.00201705
1.89244e-07
0.00201687
1.83567e-07
0.00201669
1.77935e-07
0.00201652
1.7235e-07
0.00201635
1.66809e-07
0.00201619
1.61313e-07
0.00201603
1.55861e-07
0.00201588
1.50453e-07
0.00201574
1.45088e-07
0.0020156
1.39767e-07
0.00201546
1.34488e-07
0.00201534
1.29253e-07
0.00201521
1.24059e-07
0.00201509
1.18908e-07
0.00201498
1.13799e-07
0.00201487
1.08731e-07
0.00201477
1.03706e-07
0.00201467
9.87214e-08
0.00201457
9.37786e-08
0.00201449
8.8877e-08
0.0020144
8.40167e-08
0.00201432
7.91975e-08
0.00201425
7.44194e-08
0.00201418
6.96823e-08
0.00201411
6.49863e-08
0.00201405
6.03312e-08
0.002014
5.57172e-08
0.00201395
5.11441e-08
0.0020139
4.66121e-08
0.00201386
4.21211e-08
0.00201382
3.76712e-08
0.00201379
3.32624e-08
0.00201376
2.88947e-08
0.00201373
2.45683e-08
0.00201371
2.02831e-08
0.0020137
1.60391e-08
0.00201368
1.18366e-08
0.00201368
7.67542e-09
0.00201367
3.55573e-09
0.00201367
-5.22441e-10
0.00201368
-4.55904e-09
0.00201369
-8.554e-09
0.0020137
-1.25073e-08
0.00201372
-1.64188e-08
0.00201374
-2.02886e-08
0.00201376
-2.41166e-08
0.00201379
-2.79027e-08
0.00201382
-3.1647e-08
0.00201385
-3.53493e-08
0.00201389
-3.90097e-08
0.00201394
-4.26282e-08
0.00201398
-4.62048e-08
0.00201403
-4.97395e-08
0.00201409
-5.32322e-08
0.00201414
-5.66831e-08
0.0020142
-6.00921e-08
0.00201427
-6.34593e-08
0.00201433
-6.67847e-08
0.0020144
-7.00684e-08
0.00201448
-7.33105e-08
0.00201455
-7.65111e-08
0.00201463
-7.96702e-08
0.00201472
-8.27879e-08
0.0020148
-8.58644e-08
0.00201489
-8.88997e-08
0.00201498
-9.1894e-08
0.00201508
-9.48475e-08
0.00201517
-9.77603e-08
0.00201528
-1.00632e-07
0.00201538
-1.03464e-07
0.00201548
-1.06256e-07
0.00201559
-1.09008e-07
0.00201571
-1.11719e-07
0.00201582
-1.14391e-07
0.00201594
-1.17024e-07
0.00201606
-1.19618e-07
0.00201618
-1.22172e-07
0.0020163
-1.24688e-07
0.00201643
-1.27166e-07
0.00201656
-1.29605e-07
0.00201669
-1.32006e-07
0.00201683
-1.3437e-07
0.00201696
-1.36696e-07
0.0020171
-1.38985e-07
0.00201724
-1.41237e-07
0.00201739
-1.43453e-07
0.00201753
-1.45632e-07
0.00201768
-1.47775e-07
0.00201783
-1.49883e-07
0.00201798
-1.51955e-07
0.00201814
-1.53992e-07
0.00201829
-1.55994e-07
0.00201845
-1.57962e-07
0.00201861
-1.59896e-07
0.00201877
-1.61796e-07
0.00201894
-1.63662e-07
0.0020191
-1.65495e-07
0.00201927
-1.67296e-07
0.00201944
-1.69063e-07
0.00201961
-1.70799e-07
0.00201978
-1.72502e-07
0.00201995
-1.74174e-07
0.00202013
-1.75815e-07
0.00202031
-1.77425e-07
0.00202049
-1.79003e-07
0.00202067
-1.80552e-07
0.00202085
-1.82071e-07
0.00202103
-1.83559e-07
0.00202122
-1.85019e-07
0.0020214
-1.86449e-07
0.00202159
-1.8785e-07
0.00202178
-1.89223e-07
0.00202197
-1.90568e-07
0.00202216
-1.91885e-07
0.00202236
-1.93174e-07
0.00202255
-1.94436e-07
0.00202275
-1.95671e-07
0.00202294
-1.96879e-07
0.00202314
-1.98061e-07
0.00202334
-1.99216e-07
0.00202354
-2.00346e-07
0.00202374
-2.01449e-07
0.00202395
-2.02528e-07
0.00202415
-2.03582e-07
0.00202435
-2.0461e-07
0.00202456
-2.05615e-07
0.00202477
-2.06594e-07
0.00202497
-2.0755e-07
0.00202518
-2.08483e-07
0.00202539
-2.09391e-07
0.0020256
-2.10277e-07
0.00202581
-2.11139e-07
0.00202603
-2.11979e-07
0.00202624
-2.12796e-07
0.00202645
-2.13591e-07
0.00202667
-2.14364e-07
0.00202688
-2.15116e-07
0.0020271
-2.15846e-07
0.00202731
-2.16554e-07
0.00202753
-2.17242e-07
0.00202775
-2.17909e-07
0.00202797
-2.18555e-07
0.00202819
-2.19181e-07
0.00202841
-2.19786e-07
0.00202863
-2.20372e-07
0.00202885
-2.20939e-07
0.00202907
-2.21486e-07
0.00202929
-2.22013e-07
0.00202951
-2.22522e-07
0.00202974
-2.23012e-07
0.00202996
-2.23484e-07
0.00203018
-2.23937e-07
0.00203041
-2.24372e-07
0.00203063
-2.24789e-07
0.00203086
-2.25189e-07
0.00203108
-2.25571e-07
0.00203131
-2.25936e-07
0.00203154
-2.26284e-07
0.00203176
-2.26615e-07
0.00203199
-2.2693e-07
0.00203222
-2.27228e-07
0.00203244
-2.27511e-07
0.00203267
-2.27777e-07
0.0020329
-2.28027e-07
0.00203313
-2.28262e-07
0.00203336
-2.28482e-07
0.00203359
-2.28687e-07
0.00203381
-2.28876e-07
0.00203404
-2.29051e-07
0.00203427
-2.29212e-07
0.0020345
-2.29358e-07
0.00203473
-2.2949e-07
0.00203496
-2.29608e-07
0.00203519
-2.29712e-07
0.00203542
-2.29803e-07
0.00203565
-2.2988e-07
0.00203588
-2.29945e-07
0.00203611
-2.29996e-07
0.00203634
-2.30035e-07
0.00203657
-2.30061e-07
0.0020368
-2.30074e-07
0.00203703
-2.30076e-07
0.00203726
-2.30065e-07
0.00203749
-2.30043e-07
0.00203772
-2.30009e-07
0.00203795
-2.29963e-07
0.00203818
-2.29906e-07
0.00203841
-2.29838e-07
0.00203864
-2.29759e-07
0.00203887
-2.29669e-07
0.0020391
-2.29568e-07
0.00203933
-2.29457e-07
0.00203956
-2.29335e-07
0.00203979
-2.29204e-07
0.00204002
-2.29062e-07
0.00204025
-2.2891e-07
0.00204047
-2.28749e-07
0.0020407
-2.28578e-07
0.00204093
-2.28397e-07
0.00204116
-2.28207e-07
0.00204139
-2.28008e-07
0.00204162
-2.278e-07
0.00204184
-2.27583e-07
0.00204207
-2.27357e-07
0.0020423
-2.27122e-07
0.00204252
-2.26879e-07
0.00204275
-2.26627e-07
0.00204298
-2.26367e-07
0.0020432
-2.26098e-07
0.00204343
-2.25821e-07
0.00204365
-2.25536e-07
0.00204388
-2.25243e-07
0.0020441
-2.24942e-07
0.00204433
-2.24633e-07
0.00204455
-2.24316e-07
0.00204478
-2.23992e-07
0.002045
-2.23659e-07
0.00204522
-2.23319e-07
0.00204545
-2.22971e-07
0.00204567
-2.22615e-07
0.00204589
-2.22251e-07
0.00204611
-2.2188e-07
0.00204634
-2.21501e-07
0.00204656
-2.21114e-07
0.00204678
-2.20719e-07
0.002047
-2.20316e-07
0.00204722
-2.19905e-07
0.00204744
-2.19486e-07
0.00204766
-2.19059e-07
0.00204788
-2.18623e-07
0.00204809
-2.18178e-07
0.00204831
-2.17724e-07
0.00204853
-2.17261e-07
0.00204875
-2.16789e-07
0.00204896
-2.16307e-07
0.00204918
-2.15814e-07
0.00204939
-2.15311e-07
0.00204961
-2.14797e-07
0.00204982
-2.14271e-07
0.00205004
-2.13732e-07
0.00205025
-2.1318e-07
0.00205046
-2.12613e-07
0.00205067
-2.12032e-07
0.00205088
-2.11433e-07
0.0020511
-2.10817e-07
0.00205131
-2.10181e-07
0.00205152
-2.09523e-07
0.00205172
-2.08843e-07
0.00205193
-2.08121e-07
0.00205214
-2.07428e-07
0.00205235
-2.0642e-07
0.00205255
-2.06691e-07
-2.00945e-07
0.00243699
0.000170511
0.00238645
0.000108911
0.00234549
7.74065e-05
0.00231243
5.67991e-05
0.00228645
4.27953e-05
0.00226591
3.37841e-05
0.00224923
2.77074e-05
0.00223535
2.33224e-05
0.00222357
2.00657e-05
0.00221337
1.75904e-05
0.00220439
1.56514e-05
0.00219638
1.40926e-05
0.00218916
1.28143e-05
0.00218259
1.1748e-05
0.00217657
1.08452e-05
0.00217101
1.00709e-05
0.00216585
9.39943e-06
0.00216104
8.81151e-06
0.00215652
8.29238e-06
0.00215228
7.83053e-06
0.00214828
7.41691e-06
0.00214448
7.04425e-06
0.00214089
6.70668e-06
0.00213746
6.3994e-06
0.00213419
6.11844e-06
0.00213107
5.86052e-06
0.00212809
5.62284e-06
0.00212522
5.40307e-06
0.00212247
5.19922e-06
0.00211982
5.00957e-06
0.00211728
4.83265e-06
0.00211482
4.66719e-06
0.00211245
4.51208e-06
0.00211015
4.36633e-06
0.00210794
4.22911e-06
0.00210579
4.09965e-06
0.00210371
3.9773e-06
0.00210169
3.86145e-06
0.00209973
3.75159e-06
0.00209783
3.64723e-06
0.00209598
3.54796e-06
0.00209419
3.4534e-06
0.00209244
3.3632e-06
0.00209073
3.27705e-06
0.00208907
3.19466e-06
0.00208746
3.11579e-06
0.00208588
3.0402e-06
0.00208434
2.96767e-06
0.00208284
2.89801e-06
0.00208138
2.83105e-06
0.00207995
2.76661e-06
0.00207855
2.70454e-06
0.00207719
2.64471e-06
0.00207585
2.587e-06
0.00207454
2.53127e-06
0.00207327
2.47742e-06
0.00207202
2.42534e-06
0.00207079
2.37495e-06
0.00206959
2.32616e-06
0.00206842
2.27887e-06
0.00206727
2.23303e-06
0.00206615
2.18855e-06
0.00206504
2.14536e-06
0.00206396
2.10342e-06
0.0020629
2.06264e-06
0.00206186
2.023e-06
0.00206084
1.98442e-06
0.00205984
1.94686e-06
0.00205886
1.91028e-06
0.0020579
1.87463e-06
0.00205696
1.83988e-06
0.00205603
1.80598e-06
0.00205512
1.7729e-06
0.00205423
1.7406e-06
0.00205335
1.70906e-06
0.00205249
1.67823e-06
0.00205165
1.6481e-06
0.00205082
1.61864e-06
0.00205001
1.58982e-06
0.00204921
1.56161e-06
0.00204842
1.53399e-06
0.00204765
1.50694e-06
0.00204689
1.48044e-06
0.00204615
1.45447e-06
0.00204542
1.42901e-06
0.0020447
1.40404e-06
0.00204399
1.37954e-06
0.0020433
1.3555e-06
0.00204262
1.33189e-06
0.00204195
1.30872e-06
0.00204129
1.28595e-06
0.00204065
1.26358e-06
0.00204001
1.24159e-06
0.00203939
1.21998e-06
0.00203878
1.19872e-06
0.00203817
1.17781e-06
0.00203758
1.15723e-06
0.002037
1.13698e-06
0.00203643
1.11705e-06
0.00203587
1.09742e-06
0.00203532
1.07808e-06
0.00203478
1.05903e-06
0.00203425
1.04026e-06
0.00203373
1.02176e-06
0.00203321
1.00352e-06
0.00203271
9.8553e-07
0.00203222
9.67787e-07
0.00203173
9.50283e-07
0.00203126
9.33011e-07
0.00203079
9.15963e-07
0.00203033
8.99135e-07
0.00202988
8.82518e-07
0.00202944
8.66109e-07
0.002029
8.499e-07
0.00202858
8.33887e-07
0.00202816
8.18063e-07
0.00202775
8.02425e-07
0.00202735
7.86967e-07
0.00202695
7.71685e-07
0.00202657
7.56573e-07
0.00202619
7.41628e-07
0.00202582
7.26845e-07
0.00202545
7.1222e-07
0.0020251
6.9775e-07
0.00202475
6.83431e-07
0.0020244
6.69259e-07
0.00202407
6.5523e-07
0.00202374
6.41342e-07
0.00202342
6.27592e-07
0.00202311
6.13975e-07
0.0020228
6.00489e-07
0.0020225
5.87132e-07
0.00202221
5.73901e-07
0.00202192
5.60793e-07
0.00202164
5.47806e-07
0.00202137
5.34937e-07
0.0020211
5.22184e-07
0.00202084
5.09545e-07
0.00202058
4.97018e-07
0.00202033
4.84602e-07
0.00202009
4.72293e-07
0.00201986
4.6009e-07
0.00201963
4.47992e-07
0.0020194
4.35998e-07
0.00201919
4.24104e-07
0.00201897
4.12311e-07
0.00201877
4.00616e-07
0.00201857
3.89019e-07
0.00201838
3.77518e-07
0.00201819
3.66112e-07
0.002018
3.548e-07
0.00201783
3.43581e-07
0.00201766
3.32454e-07
0.00201749
3.21419e-07
0.00201733
3.10473e-07
0.00201718
2.99617e-07
0.00201703
2.8885e-07
0.00201688
2.78171e-07
0.00201675
2.6758e-07
0.00201661
2.57076e-07
0.00201648
2.46658e-07
0.00201636
2.36326e-07
0.00201624
2.2608e-07
0.00201613
2.1592e-07
0.00201603
2.05845e-07
0.00201592
1.95854e-07
0.00201583
1.85948e-07
0.00201573
1.76126e-07
0.00201565
1.66388e-07
0.00201556
1.56734e-07
0.00201549
1.47164e-07
0.00201541
1.37677e-07
0.00201535
1.28274e-07
0.00201528
1.18955e-07
0.00201522
1.0972e-07
0.00201517
1.00568e-07
0.00201512
9.14995e-08
0.00201508
8.25148e-08
0.00201504
7.36137e-08
0.002015
6.47963e-08
0.00201497
5.60627e-08
0.00201494
4.7413e-08
0.00201492
3.88472e-08
0.0020149
3.03653e-08
0.00201489
2.19676e-08
0.00201488
1.3654e-08
0.00201487
5.42469e-09
0.00201487
-2.72029e-09
0.00201487
-1.07808e-08
0.00201488
-1.87569e-08
0.00201489
-2.66484e-08
0.0020149
-3.44552e-08
0.00201492
-4.21773e-08
0.00201494
-4.98147e-08
0.00201497
-5.73672e-08
0.002015
-6.4835e-08
0.00201503
-7.22179e-08
0.00201507
-7.95161e-08
0.00201511
-8.67294e-08
0.00201515
-9.38579e-08
0.0020152
-1.00902e-07
0.00201525
-1.07861e-07
0.0020153
-1.14735e-07
0.00201536
-1.21525e-07
0.00201542
-1.28231e-07
0.00201549
-1.34852e-07
0.00201556
-1.4139e-07
0.00201563
-1.47843e-07
0.0020157
-1.54213e-07
0.00201578
-1.60499e-07
0.00201586
-1.66702e-07
0.00201595
-1.72822e-07
0.00201603
-1.78859e-07
0.00201612
-1.84814e-07
0.00201622
-1.90687e-07
0.00201631
-1.96478e-07
0.00201641
-2.02187e-07
0.00201651
-2.07815e-07
0.00201662
-2.13363e-07
0.00201672
-2.1883e-07
0.00201683
-2.24218e-07
0.00201695
-2.29526e-07
0.00201706
-2.34755e-07
0.00201718
-2.39906e-07
0.0020173
-2.44978e-07
0.00201742
-2.49973e-07
0.00201755
-2.54891e-07
0.00201767
-2.59733e-07
0.0020178
-2.64499e-07
0.00201794
-2.69189e-07
0.00201807
-2.73804e-07
0.00201821
-2.78346e-07
0.00201835
-2.82813e-07
0.00201849
-2.87208e-07
0.00201863
-2.9153e-07
0.00201878
-2.9578e-07
0.00201893
-2.99959e-07
0.00201908
-3.04067e-07
0.00201923
-3.08106e-07
0.00201938
-3.12075e-07
0.00201954
-3.15975e-07
0.0020197
-3.19807e-07
0.00201986
-3.23572e-07
0.00202002
-3.27269e-07
0.00202018
-3.30901e-07
0.00202035
-3.34467e-07
0.00202052
-3.37968e-07
0.00202068
-3.41405e-07
0.00202085
-3.44778e-07
0.00202103
-3.48089e-07
0.0020212
-3.51337e-07
0.00202138
-3.54523e-07
0.00202155
-3.57648e-07
0.00202173
-3.60713e-07
0.00202191
-3.63718e-07
0.00202209
-3.66664e-07
0.00202228
-3.69551e-07
0.00202246
-3.7238e-07
0.00202265
-3.75152e-07
0.00202284
-3.77868e-07
0.00202302
-3.80527e-07
0.00202321
-3.8313e-07
0.0020234
-3.85679e-07
0.0020236
-3.88173e-07
0.00202379
-3.90614e-07
0.00202399
-3.93001e-07
0.00202418
-3.95335e-07
0.00202438
-3.97618e-07
0.00202458
-3.99849e-07
0.00202478
-4.02029e-07
0.00202498
-4.04159e-07
0.00202518
-4.06239e-07
0.00202538
-4.08269e-07
0.00202559
-4.10251e-07
0.00202579
-4.12184e-07
0.002026
-4.1407e-07
0.0020262
-4.15909e-07
0.00202641
-4.17701e-07
0.00202662
-4.19446e-07
0.00202683
-4.21146e-07
0.00202704
-4.22801e-07
0.00202725
-4.24411e-07
0.00202746
-4.25977e-07
0.00202767
-4.27499e-07
0.00202789
-4.28978e-07
0.0020281
-4.30415e-07
0.00202831
-4.31809e-07
0.00202853
-4.33161e-07
0.00202875
-4.34472e-07
0.00202896
-4.35742e-07
0.00202918
-4.36972e-07
0.0020294
-4.38161e-07
0.00202961
-4.39312e-07
0.00202983
-4.40423e-07
0.00203005
-4.41496e-07
0.00203027
-4.42531e-07
0.00203049
-4.43528e-07
0.00203071
-4.44487e-07
0.00203094
-4.45411e-07
0.00203116
-4.46297e-07
0.00203138
-4.47148e-07
0.0020316
-4.47964e-07
0.00203183
-4.48744e-07
0.00203205
-4.4949e-07
0.00203227
-4.50202e-07
0.0020325
-4.5088e-07
0.00203272
-4.51524e-07
0.00203295
-4.52136e-07
0.00203317
-4.52715e-07
0.0020334
-4.53263e-07
0.00203362
-4.53778e-07
0.00203385
-4.54263e-07
0.00203408
-4.54717e-07
0.0020343
-4.5514e-07
0.00203453
-4.55534e-07
0.00203476
-4.55897e-07
0.00203498
-4.56232e-07
0.00203521
-4.56538e-07
0.00203544
-4.56816e-07
0.00203567
-4.57065e-07
0.00203589
-4.57287e-07
0.00203612
-4.57482e-07
0.00203635
-4.5765e-07
0.00203658
-4.57792e-07
0.0020368
-4.57907e-07
0.00203703
-4.57997e-07
0.00203726
-4.58062e-07
0.00203749
-4.58102e-07
0.00203772
-4.58117e-07
0.00203794
-4.58108e-07
0.00203817
-4.58075e-07
0.0020384
-4.58019e-07
0.00203863
-4.5794e-07
0.00203886
-4.57837e-07
0.00203908
-4.57713e-07
0.00203931
-4.57566e-07
0.00203954
-4.57398e-07
0.00203977
-4.57208e-07
0.00203999
-4.56997e-07
0.00204022
-4.56765e-07
0.00204045
-4.56513e-07
0.00204068
-4.5624e-07
0.0020409
-4.55948e-07
0.00204113
-4.55635e-07
0.00204136
-4.55304e-07
0.00204158
-4.54954e-07
0.00204181
-4.54584e-07
0.00204204
-4.54197e-07
0.00204226
-4.53791e-07
0.00204249
-4.53367e-07
0.00204271
-4.52925e-07
0.00204294
-4.52466e-07
0.00204316
-4.51989e-07
0.00204339
-4.51495e-07
0.00204361
-4.50985e-07
0.00204384
-4.50457e-07
0.00204406
-4.49913e-07
0.00204429
-4.49353e-07
0.00204451
-4.48777e-07
0.00204473
-4.48184e-07
0.00204496
-4.47575e-07
0.00204518
-4.46951e-07
0.0020454
-4.46311e-07
0.00204562
-4.45655e-07
0.00204584
-4.44984e-07
0.00204607
-4.44297e-07
0.00204629
-4.43594e-07
0.00204651
-4.42876e-07
0.00204673
-4.42142e-07
0.00204695
-4.41393e-07
0.00204717
-4.40628e-07
0.00204739
-4.39847e-07
0.0020476
-4.3905e-07
0.00204782
-4.38237e-07
0.00204804
-4.37407e-07
0.00204826
-4.36561e-07
0.00204848
-4.35697e-07
0.00204869
-4.34817e-07
0.00204891
-4.33918e-07
0.00204912
-4.33001e-07
0.00204934
-4.32065e-07
0.00204955
-4.31109e-07
0.00204977
-4.30133e-07
0.00204998
-4.29135e-07
0.0020502
-4.28115e-07
0.00205041
-4.27071e-07
0.00205062
-4.26002e-07
0.00205083
-4.24906e-07
0.00205104
-4.23783e-07
0.00205125
-4.22628e-07
0.00205146
-4.21441e-07
0.00205167
-4.20218e-07
0.00205188
-4.18956e-07
0.00205209
-4.17651e-07
0.0020523
-4.16298e-07
0.0020525
-4.14883e-07
0.00205271
-4.13428e-07
0.00205292
-4.11767e-07
0.00205312
-4.10367e-07
-4.0645e-07
0.00247084
0.000190158
0.00243653
0.000143226
0.00240244
0.00011149
0.00237102
8.82236e-05
0.00234325
7.05573e-05
0.00231943
5.7604e-05
0.00229907
4.80704e-05
0.00228155
4.08457e-05
0.00226635
3.52652e-05
0.00225305
3.08919e-05
0.0022413
2.74029e-05
0.00223082
2.45692e-05
0.0022214
2.22322e-05
0.00221287
2.02783e-05
0.00220509
1.86242e-05
0.00219796
1.72079e-05
0.00219137
1.59832e-05
0.00218527
1.49146e-05
0.00217959
1.39747e-05
0.00217427
1.3142e-05
0.00216929
1.23994e-05
0.0021646
1.17333e-05
0.00216018
1.11324e-05
0.00215599
1.05878e-05
0.00215202
1.00919e-05
0.00214824
9.63855e-06
0.00214464
9.22243e-06
0.0021412
8.83914e-06
0.00213792
8.48494e-06
0.00213477
8.1566e-06
0.00213175
7.85138e-06
0.00212885
7.56689e-06
0.00212606
7.30106e-06
0.00212338
7.05208e-06
0.00212079
6.81836e-06
0.00211829
6.59853e-06
0.00211587
6.39135e-06
0.00211354
6.19573e-06
0.00211128
6.0107e-06
0.00210909
5.83541e-06
0.00210697
5.66907e-06
0.00210491
5.511e-06
0.00210292
5.36057e-06
0.00210098
5.21721e-06
0.00209909
5.08043e-06
0.00209726
4.94975e-06
0.00209547
4.82476e-06
0.00209373
4.70508e-06
0.00209204
4.59035e-06
0.00209039
4.48027e-06
0.00208878
4.37452e-06
0.00208722
4.27286e-06
0.00208569
4.17502e-06
0.00208419
4.0808e-06
0.00208273
3.98996e-06
0.00208131
3.90233e-06
0.00207992
3.81771e-06
0.00207856
3.73596e-06
0.00207722
3.6569e-06
0.00207592
3.5804e-06
0.00207465
3.50633e-06
0.0020734
3.43456e-06
0.00207218
3.36497e-06
0.00207099
3.29746e-06
0.00206982
3.23193e-06
0.00206868
3.16827e-06
0.00206755
3.10641e-06
0.00206645
3.04625e-06
0.00206538
2.98772e-06
0.00206432
2.93075e-06
0.00206329
2.87526e-06
0.00206227
2.8212e-06
0.00206127
2.76849e-06
0.0020603
2.71709e-06
0.00205934
2.66693e-06
0.0020584
2.61796e-06
0.00205748
2.57014e-06
0.00205657
2.52342e-06
0.00205569
2.47776e-06
0.00205481
2.43311e-06
0.00205396
2.38943e-06
0.00205312
2.34668e-06
0.00205229
2.30484e-06
0.00205149
2.26387e-06
0.00205069
2.22373e-06
0.00204991
2.18439e-06
0.00204914
2.14583e-06
0.00204839
2.10801e-06
0.00204765
2.07091e-06
0.00204693
2.03451e-06
0.00204621
1.99877e-06
0.00204551
1.96369e-06
0.00204483
1.92922e-06
0.00204415
1.89536e-06
0.00204349
1.86209e-06
0.00204284
1.82938e-06
0.0020422
1.79721e-06
0.00204157
1.76557e-06
0.00204095
1.73444e-06
0.00204034
1.7038e-06
0.00203975
1.67365e-06
0.00203916
1.64395e-06
0.00203859
1.61471e-06
0.00203802
1.5859e-06
0.00203747
1.55751e-06
0.00203693
1.52953e-06
0.00203639
1.50194e-06
0.00203587
1.47475e-06
0.00203535
1.44792e-06
0.00203485
1.42146e-06
0.00203435
1.39535e-06
0.00203386
1.36958e-06
0.00203339
1.34414e-06
0.00203292
1.31903e-06
0.00203246
1.29423e-06
0.002032
1.26974e-06
0.00203156
1.24554e-06
0.00203113
1.22163e-06
0.0020307
1.19801e-06
0.00203028
1.17465e-06
0.00202987
1.15157e-06
0.00202947
1.12874e-06
0.00202908
1.10617e-06
0.00202869
1.08385e-06
0.00202831
1.06176e-06
0.00202794
1.03991e-06
0.00202758
1.01829e-06
0.00202722
9.96898e-07
0.00202687
9.75721e-07
0.00202653
9.54759e-07
0.0020262
9.34006e-07
0.00202587
9.13457e-07
0.00202556
8.93108e-07
0.00202524
8.72956e-07
0.00202494
8.52996e-07
0.00202464
8.33223e-07
0.00202435
8.13635e-07
0.00202406
7.94229e-07
0.00202379
7.74999e-07
0.00202351
7.55944e-07
0.00202325
7.3706e-07
0.00202299
7.18345e-07
0.00202274
6.99795e-07
0.00202249
6.81408e-07
0.00202225
6.63182e-07
0.00202202
6.45114e-07
0.0020218
6.27201e-07
0.00202157
6.09442e-07
0.00202136
5.91835e-07
0.00202115
5.74377e-07
0.00202095
5.57067e-07
0.00202075
5.39903e-07
0.00202056
5.22884e-07
0.00202038
5.06008e-07
0.0020202
4.89274e-07
0.00202003
4.7268e-07
0.00201986
4.56225e-07
0.0020197
4.39909e-07
0.00201954
4.23729e-07
0.00201939
4.07686e-07
0.00201925
3.91777e-07
0.00201911
3.76004e-07
0.00201897
3.60363e-07
0.00201884
3.44856e-07
0.00201872
3.29481e-07
0.0020186
3.14238e-07
0.00201849
2.99127e-07
0.00201838
2.84146e-07
0.00201828
2.69296e-07
0.00201818
2.54576e-07
0.00201809
2.39986e-07
0.002018
2.25525e-07
0.00201792
2.11195e-07
0.00201784
1.96993e-07
0.00201776
1.82921e-07
0.0020177
1.68978e-07
0.00201763
1.55164e-07
0.00201757
1.41479e-07
0.00201752
1.27923e-07
0.00201747
1.14496e-07
0.00201742
1.01198e-07
0.00201738
8.80288e-08
0.00201735
7.4989e-08
0.00201732
6.20783e-08
0.00201729
4.92969e-08
0.00201727
3.66447e-08
0.00201725
2.41219e-08
0.00201723
1.17285e-08
0.00201722
-5.35386e-10
0.00201722
-1.26698e-08
0.00201721
-2.46745e-08
0.00201722
-3.65497e-08
0.00201722
-4.82952e-08
0.00201723
-5.99109e-08
0.00201725
-7.1397e-08
0.00201726
-8.27534e-08
0.00201729
-9.39801e-08
0.00201731
-1.05077e-07
0.00201734
-1.16045e-07
0.00201737
-1.26883e-07
0.00201741
-1.37592e-07
0.00201745
-1.48171e-07
0.00201749
-1.58622e-07
0.00201754
-1.68943e-07
0.00201759
-1.79137e-07
0.00201765
-1.89201e-07
0.0020177
-1.99138e-07
0.00201777
-2.08946e-07
0.00201783
-2.18628e-07
0.0020179
-2.28182e-07
0.00201797
-2.37609e-07
0.00201804
-2.4691e-07
0.00201812
-2.56085e-07
0.0020182
-2.65135e-07
0.00201828
-2.7406e-07
0.00201837
-2.8286e-07
0.00201846
-2.91537e-07
0.00201855
-3.0009e-07
0.00201865
-3.08521e-07
0.00201875
-3.1683e-07
0.00201885
-3.25017e-07
0.00201895
-3.33084e-07
0.00201906
-3.41031e-07
0.00201916
-3.48859e-07
0.00201928
-3.56568e-07
0.00201939
-3.64159e-07
0.00201951
-3.71634e-07
0.00201963
-3.78992e-07
0.00201975
-3.86236e-07
0.00201987
-3.93365e-07
0.00202
-4.0038e-07
0.00202013
-4.07283e-07
0.00202026
-4.14074e-07
0.00202039
-4.20755e-07
0.00202053
-4.27325e-07
0.00202067
-4.33787e-07
0.00202081
-4.4014e-07
0.00202095
-4.46387e-07
0.00202109
-4.52527e-07
0.00202124
-4.58562e-07
0.00202139
-4.64493e-07
0.00202154
-4.70321e-07
0.00202169
-4.76047e-07
0.00202185
-4.81671e-07
0.002022
-4.87195e-07
0.00202216
-4.9262e-07
0.00202232
-4.97946e-07
0.00202248
-5.03176e-07
0.00202265
-5.08308e-07
0.00202281
-5.13346e-07
0.00202298
-5.18289e-07
0.00202315
-5.23138e-07
0.00202332
-5.27895e-07
0.00202349
-5.32561e-07
0.00202366
-5.37136e-07
0.00202384
-5.41622e-07
0.00202401
-5.46018e-07
0.00202419
-5.50327e-07
0.00202437
-5.5455e-07
0.00202455
-5.58686e-07
0.00202473
-5.62738e-07
0.00202492
-5.66705e-07
0.0020251
-5.70589e-07
0.00202529
-5.74391e-07
0.00202548
-5.78112e-07
0.00202566
-5.81752e-07
0.00202585
-5.85312e-07
0.00202605
-5.88794e-07
0.00202624
-5.92198e-07
0.00202643
-5.95525e-07
0.00202663
-5.98775e-07
0.00202682
-6.0195e-07
0.00202702
-6.05051e-07
0.00202722
-6.08077e-07
0.00202742
-6.11031e-07
0.00202762
-6.13912e-07
0.00202782
-6.16722e-07
0.00202802
-6.19462e-07
0.00202822
-6.22131e-07
0.00202842
-6.24732e-07
0.00202863
-6.27264e-07
0.00202883
-6.29728e-07
0.00202904
-6.32126e-07
0.00202925
-6.34458e-07
0.00202945
-6.36724e-07
0.00202966
-6.38926e-07
0.00202987
-6.41064e-07
0.00203008
-6.43138e-07
0.00203029
-6.4515e-07
0.0020305
-6.47101e-07
0.00203072
-6.4899e-07
0.00203093
-6.50819e-07
0.00203114
-6.52589e-07
0.00203136
-6.54299e-07
0.00203157
-6.55951e-07
0.00203179
-6.57545e-07
0.002032
-6.59083e-07
0.00203222
-6.60564e-07
0.00203243
-6.6199e-07
0.00203265
-6.63361e-07
0.00203287
-6.64678e-07
0.00203309
-6.65941e-07
0.00203331
-6.67151e-07
0.00203352
-6.68309e-07
0.00203374
-6.69415e-07
0.00203396
-6.7047e-07
0.00203418
-6.71475e-07
0.0020344
-6.7243e-07
0.00203462
-6.73336e-07
0.00203484
-6.74194e-07
0.00203507
-6.75004e-07
0.00203529
-6.75767e-07
0.00203551
-6.76483e-07
0.00203573
-6.77154e-07
0.00203595
-6.77779e-07
0.00203618
-6.78359e-07
0.0020364
-6.78896e-07
0.00203662
-6.79388e-07
0.00203684
-6.79838e-07
0.00203707
-6.80246e-07
0.00203729
-6.80612e-07
0.00203751
-6.80937e-07
0.00203774
-6.81222e-07
0.00203796
-6.81466e-07
0.00203819
-6.81671e-07
0.00203841
-6.81838e-07
0.00203863
-6.81966e-07
0.00203886
-6.82056e-07
0.00203908
-6.8211e-07
0.0020393
-6.82127e-07
0.00203953
-6.82108e-07
0.00203975
-6.82053e-07
0.00203998
-6.81963e-07
0.0020402
-6.81839e-07
0.00204042
-6.81681e-07
0.00204065
-6.8149e-07
0.00204087
-6.81266e-07
0.0020411
-6.81009e-07
0.00204132
-6.80721e-07
0.00204154
-6.804e-07
0.00204177
-6.80049e-07
0.00204199
-6.79668e-07
0.00204221
-6.79256e-07
0.00204244
-6.78815e-07
0.00204266
-6.78344e-07
0.00204288
-6.77845e-07
0.00204311
-6.77317e-07
0.00204333
-6.76762e-07
0.00204355
-6.76178e-07
0.00204377
-6.75568e-07
0.002044
-6.7493e-07
0.00204422
-6.74266e-07
0.00204444
-6.73576e-07
0.00204466
-6.7286e-07
0.00204488
-6.72119e-07
0.0020451
-6.71352e-07
0.00204532
-6.7056e-07
0.00204554
-6.69743e-07
0.00204576
-6.68902e-07
0.00204598
-6.68037e-07
0.0020462
-6.67147e-07
0.00204642
-6.66234e-07
0.00204664
-6.65297e-07
0.00204686
-6.64336e-07
0.00204708
-6.63351e-07
0.0020473
-6.62343e-07
0.00204751
-6.61312e-07
0.00204773
-6.60257e-07
0.00204795
-6.59178e-07
0.00204816
-6.58076e-07
0.00204838
-6.5695e-07
0.0020486
-6.558e-07
0.00204881
-6.54627e-07
0.00204903
-6.53428e-07
0.00204924
-6.52205e-07
0.00204946
-6.50957e-07
0.00204967
-6.49683e-07
0.00204988
-6.48383e-07
0.0020501
-6.47056e-07
0.00205031
-6.45701e-07
0.00205052
-6.44318e-07
0.00205073
-6.42905e-07
0.00205095
-6.41462e-07
0.00205116
-6.39986e-07
0.00205137
-6.38477e-07
0.00205158
-6.36932e-07
0.00205179
-6.3535e-07
0.002052
-6.33728e-07
0.0020522
-6.32064e-07
0.00205241
-6.30355e-07
0.00205262
-6.28596e-07
0.00205282
-6.26785e-07
0.00205303
-6.24917e-07
0.00205324
-6.22984e-07
0.00205344
-6.20981e-07
0.00205364
-6.18894e-07
0.00205385
-6.16726e-07
0.00205405
-6.14372e-07
0.00205425
-6.12044e-07
-6.07803e-07
0.00248171
0.000198932
0.00246142
0.000163519
0.00243772
0.000135196
0.00241325
0.000112692
0.00238933
9.44689e-05
0.00236699
7.99508e-05
0.00234659
6.847e-05
0.00232814
5.92981e-05
0.00231151
5.18955e-05
0.00229652
4.58741e-05
0.002283
4.0929e-05
0.00227074
3.68235e-05
0.0022596
3.33795e-05
0.00224941
3.04622e-05
0.00224007
2.7968e-05
0.00223146
2.58169e-05
0.0022235
2.39467e-05
0.0022161
2.23086e-05
0.00220921
2.0864e-05
0.00220277
1.95819e-05
0.00219673
1.84374e-05
0.00219106
1.74104e-05
0.00218571
1.64842e-05
0.00218065
1.5645e-05
0.00217586
1.48816e-05
0.00217131
1.41843e-05
0.00216699
1.35451e-05
0.00216287
1.29572e-05
0.00215894
1.24146e-05
0.00215519
1.19125e-05
0.00215159
1.14466e-05
0.00214815
1.1013e-05
0.00214484
1.06085e-05
0.00214166
1.02304e-05
0.0021386
9.87614e-06
0.00213566
9.54351e-06
0.00213282
9.23059e-06
0.00213008
8.93566e-06
0.00212743
8.65722e-06
0.00212487
8.39389e-06
0.0021224
8.14447e-06
0.00212
7.90786e-06
0.00211768
7.68308e-06
0.00211543
7.46925e-06
0.00211324
7.26556e-06
0.00211112
7.0713e-06
0.00210906
6.8858e-06
0.00210705
6.70846e-06
0.00210511
6.53874e-06
0.00210321