/*--------------------------------*- C++ -*----------------------------------*\
| =========                 |                                                 |
| \\      /  F ield         | OpenFOAM: The Open Source CFD Toolbox           |
|  \\    /   O peration     | Version:  2506                                  |
|   \\  /    A nd           | Website:  www.openfoam.com                      |
|    \\/     M anipulation  |                                                 |
\*---------------------------------------------------------------------------*/
FoamFile
{
    version     2.0;
    format      ascii;
    arch        "LSB;label=32;scalar=64";
    class       volVectorField;
    location    "900";
    object      U;
}
// * * * * * * * * * * * * * * * * * * * * * * * * * * * * * * * * * * * * * //

dimensions      [0 1 -1 0 0 0 0];

internalField   nonuniform List<vector> 
131949
(
(9.79004 0.50869 0)
(9.35424 0.191718 0)
(9.14346 0.0846578 0)
(9.05442 0.0439539 0)
(8.98406 0.0273121 0)
(8.92302 0.0209585 0)
(8.87475 0.0179553 0)
(8.83487 0.0158988 0)
(8.79991 0.0143153 0)
(8.76875 0.0130463 0)
(8.74079 0.0119818 0)
(8.71541 0.0110693 0)
(8.69214 0.0102814 0)
(8.67066 0.00959545 0)
(8.65071 0.00899316 0)
(8.63209 0.00846037 0)
(8.61463 0.00798598 0)
(8.59819 0.00756102 0)
(8.58266 0.00717817 0)
(8.56795 0.0068315 0)
(8.55397 0.00651608 0)
(8.54066 0.00622785 0)
(8.52795 0.0059634 0)
(8.5158 0.00571987 0)
(8.50416 0.00549483 0)
(8.49298 0.00528622 0)
(8.48224 0.00509226 0)
(8.4719 0.00491142 0)
(8.46193 0.00474239 0)
(8.45232 0.00458401 0)
(8.44303 0.00443527 0)
(8.43405 0.0042953 0)
(8.42535 0.00416331 0)
(8.41693 0.00403861 0)
(8.40876 0.00392059 0)
(8.40084 0.00380872 0)
(8.39314 0.00370249 0)
(8.38566 0.00360148 0)
(8.37839 0.00350529 0)
(8.37131 0.00341356 0)
(8.36442 0.00332598 0)
(8.35772 0.00324225 0)
(8.35118 0.00316212 0)
(8.3448 0.00308534 0)
(8.33858 0.00301169 0)
(8.33251 0.00294097 0)
(8.32659 0.002873 0)
(8.3208 0.00280762 0)
(8.31515 0.00274465 0)
(8.30962 0.00268397 0)
(8.30422 0.00262544 0)
(8.29893 0.00256894 0)
(8.29376 0.00251436 0)
(8.2887 0.00246159 0)
(8.28375 0.00241053 0)
(8.2789 0.0023611 0)
(8.27415 0.00231321 0)
(8.2695 0.00226678 0)
(8.26494 0.00222174 0)
(8.26048 0.00217803 0)
(8.2561 0.00213557 0)
(8.25181 0.00209431 0)
(8.2476 0.00205419 0)
(8.24347 0.00201516 0)
(8.23942 0.00197717 0)
(8.23545 0.00194018 0)
(8.23155 0.00190413 0)
(8.22773 0.00186899 0)
(8.22397 0.00183472 0)
(8.22029 0.00180129 0)
(8.21667 0.00176865 0)
(8.21312 0.00173678 0)
(8.20963 0.00170564 0)
(8.20621 0.0016752 0)
(8.20285 0.00164544 0)
(8.19954 0.00161634 0)
(8.1963 0.00158785 0)
(8.19311 0.00155997 0)
(8.18998 0.00153267 0)
(8.18691 0.00150592 0)
(8.18389 0.00147972 0)
(8.18092 0.00145402 0)
(8.178 0.00142883 0)
(8.17514 0.00140412 0)
(8.17232 0.00137987 0)
(8.16955 0.00135606 0)
(8.16683 0.00133269 0)
(8.16416 0.00130974 0)
(8.16153 0.00128719 0)
(8.15895 0.00126503 0)
(8.15642 0.00124325 0)
(8.15392 0.00122183 0)
(8.15147 0.00120076 0)
(8.14907 0.00118003 0)
(8.1467 0.00115963 0)
(8.14438 0.00113956 0)
(8.14209 0.00111979 0)
(8.13985 0.00110032 0)
(8.13764 0.00108114 0)
(8.13548 0.00106225 0)
(8.13335 0.00104363 0)
(8.13126 0.00102527 0)
(8.1292 0.00100717 0)
(8.12718 0.000989316 0)
(8.1252 0.000971706 0)
(8.12326 0.000954332 0)
(8.12134 0.000937186 0)
(8.11947 0.000920262 0)
(8.11762 0.000903553 0)
(8.11581 0.000887053 0)
(8.11404 0.000870757 0)
(8.11229 0.00085466 0)
(8.11058 0.000838754 0)
(8.1089 0.000823036 0)
(8.10726 0.000807501 0)
(8.10564 0.000792143 0)
(8.10405 0.000776958 0)
(8.1025 0.000761942 0)
(8.10097 0.000747089 0)
(8.09948 0.000732397 0)
(8.09801 0.00071786 0)
(8.09657 0.000703476 0)
(8.09517 0.00068924 0)
(8.09379 0.00067515 0)
(8.09244 0.0006612 0)
(8.09111 0.000647389 0)
(8.08982 0.000633713 0)
(8.08855 0.000620169 0)
(8.08731 0.000606754 0)
(8.0861 0.000593466 0)
(8.08491 0.000580301 0)
(8.08375 0.000567257 0)
(8.08261 0.000554332 0)
(8.0815 0.000541523 0)
(8.08042 0.000528828 0)
(8.07936 0.000516245 0)
(8.07833 0.000503772 0)
(8.07732 0.000491406 0)
(8.07634 0.000479147 0)
(8.07538 0.000466992 0)
(8.07445 0.000454939 0)
(8.07354 0.000442987 0)
(8.07266 0.000431135 0)
(8.0718 0.00041938 0)
(8.07096 0.000407722 0)
(8.07014 0.00039616 0)
(8.06935 0.000384691 0)
(8.06858 0.000373315 0)
(8.06784 0.00036203 0)
(8.06711 0.000350837 0)
(8.06641 0.000339733 0)
(8.06574 0.000328718 0)
(8.06508 0.00031779 0)
(8.06445 0.000306951 0)
(8.06383 0.000296197 0)
(8.06324 0.00028553 0)
(8.06267 0.000274948 0)
(8.06212 0.00026445 0)
(8.0616 0.000254037 0)
(8.06109 0.000243707 0)
(8.0606 0.000233461 0)
(8.06014 0.000223297 0)
(8.05969 0.000213217 0)
(8.05927 0.000203218 0)
(8.05886 0.000193302 0)
(8.05848 0.000183467 0)
(8.05811 0.000173715 0)
(8.05777 0.000164043 0)
(8.05744 0.000154453 0)
(8.05713 0.000144945 0)
(8.05685 0.000135518 0)
(8.05658 0.000126172 0)
(8.05633 0.000116907 0)
(8.05609 0.000107723 0)
(8.05588 9.86209e-05 0)
(8.05568 8.95999e-05 0)
(8.05551 8.06602e-05 0)
(8.05535 7.18021e-05 0)
(8.05521 6.30254e-05 0)
(8.05508 5.43304e-05 0)
(8.05497 4.57171e-05 0)
(8.05489 3.71857e-05 0)
(8.05481 2.87363e-05 0)
(8.05476 2.03689e-05 0)
(8.05472 1.20838e-05 0)
(8.0547 3.88101e-06 0)
(8.05469 -4.2393e-06 0)
(8.0547 -1.2277e-05 0)
(8.05473 -2.0232e-05 0)
(8.05477 -2.81042e-05 0)
(8.05483 -3.58935e-05 0)
(8.0549 -4.35997e-05 0)
(8.05499 -5.12228e-05 0)
(8.05509 -5.87627e-05 0)
(8.05521 -6.62193e-05 0)
(8.05535 -7.35926e-05 0)
(8.05549 -8.08826e-05 0)
(8.05566 -8.80891e-05 0)
(8.05584 -9.52122e-05 0)
(8.05603 -0.000102252 1.81019e-105)
(8.05623 -0.000109208 -1.81009e-105)
(8.05645 -0.000116081 0)
(8.05669 -0.000122871 0)
(8.05693 -0.000129578 0)
(8.05719 -0.000136201 0)
(8.05747 -0.000142741 0)
(8.05775 -0.000149199 0)
(8.05805 -0.000155574 0)
(8.05837 -0.000161866 0)
(8.05869 -0.000168076 0)
(8.05903 -0.000174204 0)
(8.05938 -0.000180249 0)
(8.05974 -0.000186214 0)
(8.06011 -0.000192096 0)
(8.0605 -0.000197898 0)
(8.0609 -0.000203619 0)
(8.0613 -0.000209259 0)
(8.06172 -0.00021482 0)
(8.06215 -0.000220301 0)
(8.0626 -0.000225702 0)
(8.06305 -0.000231024 0)
(8.06351 -0.000236268 0)
(8.06398 -0.000241434 0)
(8.06447 -0.000246522 0)
(8.06496 -0.000251533 0)
(8.06547 -0.000256468 0)
(8.06598 -0.000261326 0)
(8.0665 -0.000266109 0)
(8.06704 -0.000270816 0)
(8.06758 -0.000275449 0)
(8.06813 -0.000280008 0)
(8.06869 -0.000284493 0)
(8.06926 -0.000288906 0)
(8.06984 -0.000293246 0)
(8.07042 -0.000297514 0)
(8.07102 -0.000301712 0)
(8.07162 -0.000305838 0)
(8.07223 -0.000309895 0)
(8.07285 -0.000313883 0)
(8.07348 -0.000317801 0)
(8.07412 -0.000321652 0)
(8.07476 -0.000325435 0)
(8.07541 -0.000329152 0)
(8.07607 -0.000332802 0)
(8.07674 -0.000336387 0)
(8.07741 -0.000339906 0)
(8.07809 -0.000343362 0)
(8.07878 -0.000346753 0)
(8.07947 -0.000350082 0)
(8.08017 -0.000353348 0)
(8.08088 -0.000356553 0)
(8.08159 -0.000359696 0)
(8.08231 -0.000362779 0)
(8.08303 -0.000365801 0)
(8.08376 -0.000368765 0)
(8.0845 -0.00037167 0)
(8.08524 -0.000374517 0)
(8.08599 -0.000377306 0)
(8.08675 -0.000380038 0)
(8.08751 -0.000382715 0)
(8.08827 -0.000385335 0)
(8.08904 -0.000387901 0)
(8.08982 -0.000390411 0)
(8.0906 -0.000392869 0)
(8.09138 -0.000395272 0)
(8.09217 -0.000397623 0)
(8.09297 -0.000399922 0)
(8.09377 -0.000402169 0)
(8.09457 -0.000404365 0)
(8.09538 -0.00040651 0)
(8.09619 -0.000408606 0)
(8.09701 -0.000410652 0)
(8.09783 -0.000412649 0)
(8.09865 -0.000414597 0)
(8.09948 -0.000416498 0)
(8.10031 -0.000418351 0)
(8.10115 -0.000420158 0)
(8.10199 -0.000421918 0)
(8.10283 -0.000423633 0)
(8.10368 -0.000425302 0)
(8.10453 -0.000426926 0)
(8.10538 -0.000428506 0)
(8.10623 -0.000430042 0)
(8.10709 -0.000431534 0)
(8.10796 -0.000432984 0)
(8.10882 -0.000434391 0)
(8.10969 -0.000435757 0)
(8.11056 -0.000437081 0)
(8.11143 -0.000438364 0)
(8.11231 -0.000439606 0)
(8.11318 -0.000440808 0)
(8.11406 -0.000441971 0)
(8.11495 -0.000443094 0)
(8.11583 -0.000444179 0)
(8.11672 -0.000445226 0)
(8.11761 -0.000446234 0)
(8.1185 -0.000447206 0)
(8.11939 -0.00044814 0)
(8.12029 -0.000449038 0)
(8.12118 -0.0004499 0)
(8.12208 -0.000450726 0)
(8.12298 -0.000451517 0)
(8.12388 -0.000452273 0)
(8.12479 -0.000452995 0)
(8.12569 -0.000453683 0)
(8.1266 -0.000454338 0)
(8.1275 -0.000454959 0)
(8.12841 -0.000455548 0)
(8.12932 -0.000456105 0)
(8.13023 -0.00045663 0)
(8.13114 -0.000457123 0)
(8.13206 -0.000457586 0)
(8.13297 -0.000458018 0)
(8.13388 -0.000458419 0)
(8.1348 -0.000458791 0)
(8.13572 -0.000459134 0)
(8.13663 -0.000459448 0)
(8.13755 -0.000459733 0)
(8.13847 -0.00045999 0)
(8.13939 -0.000460219 0)
(8.1403 -0.000460421 0)
(8.14122 -0.000460596 0)
(8.14214 -0.000460744 0)
(8.14306 -0.000460867 0)
(8.14398 -0.000460963 0)
(8.1449 -0.000461034 0)
(8.14582 -0.000461079 0)
(8.14674 -0.0004611 0)
(8.14766 -0.000461097 0)
(8.14858 -0.000461069 0)
(8.1495 -0.000461018 0)
(8.15042 -0.000460944 0)
(8.15134 -0.000460846 0)
(8.15226 -0.000460726 0)
(8.15318 -0.000460584 0)
(8.1541 -0.00046042 0)
(8.15502 -0.000460234 0)
(8.15594 -0.000460027 0)
(8.15686 -0.000459799 0)
(8.15777 -0.00045955 0)
(8.15869 -0.000459281 0)
(8.15961 -0.000458992 0)
(8.16052 -0.000458683 0)
(8.16144 -0.000458355 0)
(8.16235 -0.000458007 0)
(8.16327 -0.000457641 0)
(8.16418 -0.000457256 0)
(8.16509 -0.000456852 0)
(8.16601 -0.000456431 0)
(8.16692 -0.000455991 0)
(8.16783 -0.000455534 0)
(8.16874 -0.00045506 0)
(8.16964 -0.000454568 0)
(8.17055 -0.000454059 0)
(8.17146 -0.000453534 0)
(8.17236 -0.000452992 0)
(8.17327 -0.000452433 0)
(8.17417 -0.000451858 0)
(8.17507 -0.000451267 0)
(8.17597 -0.00045066 0)
(8.17687 -0.000450038 0)
(8.17777 -0.000449399 0)
(8.17866 -0.000448745 0)
(8.17956 -0.000448075 0)
(8.18045 -0.00044739 0)
(8.18135 -0.000446689 0)
(8.18224 -0.000445973 0)
(8.18313 -0.000445241 0)
(8.18401 -0.000444494 0)
(8.1849 -0.000443731 0)
(8.18579 -0.000442953 0)
(8.18667 -0.000442159 0)
(8.18755 -0.000441349 0)
(8.18843 -0.000440522 0)
(8.18931 -0.00043968 0)
(8.19019 -0.00043882 0)
(8.19106 -0.000437944 0)
(8.19194 -0.00043705 0)
(8.19281 -0.000436138 0)
(8.19368 -0.000435208 0)
(8.19455 -0.000434259 0)
(8.19541 -0.00043329 0)
(8.19628 -0.000432301 0)
(8.19714 -0.00043129 0)
(8.198 -0.000430257 0)
(8.19886 -0.0004292 0)
(8.19971 -0.000428118 0)
(8.20057 -0.000427009 0)
(8.20142 -0.000425871 0)
(8.20227 -0.000424703 0)
(8.20312 -0.000423501 0)
(8.20396 -0.000422263 0)
(8.2048 -0.000420986 0)
(8.20564 -0.000419663 0)
(8.20648 -0.000418298 0)
(8.20731 -0.000416845 0)
(8.20814 -0.000415467 0)
(8.20898 -0.000413402 0)
(8.20975 -0.000414099 0)
(8.21086 -0.000401749 0)
(9.89636 0.592428 0)
(9.64868 0.329307 0)
(9.44654 0.219669 0)
(9.30553 0.153639 0)
(9.19287 0.111412 0)
(9.10032 0.0866493 0)
(9.02652 0.0711006 0)
(8.96656 0.0601999 0)
(8.91599 0.0522248 0)
(8.87242 0.0462136 0)
(8.83435 0.0414993 0)
(8.80061 0.0376832 0)
(8.77033 0.0345278 0)
(8.74289 0.0318725 0)
(8.71781 0.029604 0)
(8.69472 0.0276414 0)
(8.67334 0.0259257 0)
(8.65344 0.024412 0)
(8.63482 0.023066 0)
(8.61735 0.0218607 0)
(8.60088 0.0207747 0)
(8.58531 0.0197907 0)
(8.57055 0.0188947 0)
(8.55652 0.0180751 0)
(8.54315 0.0173223 0)
(8.53039 0.0166283 0)
(8.51819 0.0159862 0)
(8.50649 0.0153902 0)
(8.49527 0.0148355 0)
(8.48448 0.0143177 0)
(8.4741 0.0138332 0)
(8.46409 0.0133787 0)
(8.45444 0.0129515 0)
(8.44512 0.012549 0)
(8.4361 0.012169 0)
(8.42738 0.0118098 0)
(8.41893 0.0114694 0)
(8.41073 0.0111465 0)
(8.40279 0.0108397 0)
(8.39507 0.0105476 0)
(8.38757 0.0102693 0)
(8.38028 0.0100037 0)
(8.37319 0.00974987 0)
(8.36629 0.00950707 0)
(8.35957 0.00927453 0)
(8.35302 0.00905157 0)
(8.34664 0.00883756 0)
(8.34042 0.00863195 0)
(8.33434 0.00843421 0)
(8.32841 0.00824386 0)
(8.32262 0.00806047 0)
(8.31697 0.00788363 0)
(8.31144 0.00771297 0)
(8.30604 0.00754813 0)
(8.30076 0.00738881 0)
(8.29559 0.00723471 0)
(8.29054 0.00708554 0)
(8.28559 0.00694105 0)
(8.28074 0.006801 0)
(8.276 0.00666517 0)
(8.27136 0.00653335 0)
(8.26681 0.00640535 0)
(8.26235 0.00628098 0)
(8.25798 0.00616007 0)
(8.2537 0.00604246 0)
(8.2495 0.005928 0)
(8.24539 0.00581655 0)
(8.24135 0.00570798 0)
(8.23739 0.00560215 0)
(8.23351 0.00549895 0)
(8.22969 0.00539828 0)
(8.22595 0.00530001 0)
(8.22228 0.00520406 0)
(8.21868 0.00511033 0)
(8.21515 0.00501872 0)
(8.21167 0.00492917 0)
(8.20827 0.00484157 0)
(8.20492 0.00475587 0)
(8.20163 0.00467198 0)
(8.19841 0.00458984 0)
(8.19524 0.00450938 0)
(8.19213 0.00443054 0)
(8.18907 0.00435326 0)
(8.18607 0.00427748 0)
(8.18312 0.00420316 0)
(8.18022 0.00413023 0)
(8.17737 0.00405865 0)
(8.17457 0.00398838 0)
(8.17183 0.00391936 0)
(8.16913 0.00385156 0)
(8.16647 0.00378493 0)
(8.16387 0.00371944 0)
(8.16131 0.00365504 0)
(8.15879 0.00359171 0)
(8.15632 0.0035294 0)
(8.15389 0.00346809 0)
(8.1515 0.00340774 0)
(8.14916 0.00334832 0)
(8.14686 0.0032898 0)
(8.1446 0.00323217 0)
(8.14237 0.00317537 0)
(8.14019 0.00311941 0)
(8.13805 0.00306423 0)
(8.13594 0.00300984 0)
(8.13387 0.00295619 0)
(8.13184 0.00290327 0)
(8.12985 0.00285106 0)
(8.12789 0.00279954 0)
(8.12597 0.00274868 0)
(8.12408 0.00269848 0)
(8.12222 0.0026489 0)
(8.1204 0.00259994 0)
(8.11862 0.00255157 0)
(8.11687 0.00250378 0)
(8.11515 0.00245655 0)
(8.11346 0.00240988 0)
(8.11181 0.00236374 0)
(8.11018 0.00231812 0)
(8.10859 0.00227301 0)
(8.10703 0.00222839 0)
(8.1055 0.00218425 0)
(8.104 0.00214058 0)
(8.10253 0.00209737 0)
(8.10109 0.00205461 0)
(8.09968 0.00201228 0)
(8.09829 0.00197039 0)
(8.09694 0.0019289 0)
(8.09562 0.00188783 0)
(8.09432 0.00184715 0)
(8.09305 0.00180686 0)
(8.09181 0.00176695 0)
(8.09059 0.00172741 0)
(8.08941 0.00168824 0)
(8.08825 0.00164943 0)
(8.08711 0.00161097 0)
(8.086 0.00157285 0)
(8.08492 0.00153507 0)
(8.08386 0.00149762 0)
(8.08283 0.0014605 0)
(8.08183 0.0014237 0)
(8.08085 0.00138721 0)
(8.07989 0.00135103 0)
(8.07896 0.00131515 0)
(8.07806 0.00127958 0)
(8.07717 0.0012443 0)
(8.07632 0.00120932 0)
(8.07548 0.00117462 0)
(8.07467 0.00114021 0)
(8.07388 0.00110607 0)
(8.07312 0.00107222 0)
(8.07238 0.00103864 0)
(8.07166 0.00100533 0)
(8.07096 0.000972291 0)
(8.07029 0.000939519 0)
(8.06964 0.000907011 0)
(8.06901 0.000874766 0)
(8.0684 0.00084278 0)
(8.06782 0.000811054 0)
(8.06725 0.000779584 0)
(8.06671 0.00074837 0)
(8.06619 0.00071741 0)
(8.06569 0.000686703 0)
(8.06521 0.000656248 0)
(8.06475 0.000626043 0)
(8.06431 0.000596089 0)
(8.06389 0.000566384 0)
(8.06349 0.000536927 0)
(8.06312 0.000507719 0)
(8.06276 0.000478758 0)
(8.06242 0.000450045 0)
(8.0621 0.000421578 0)
(8.0618 0.000393359 0)
(8.06152 0.000365387 0)
(8.06126 0.000337661 0)
(8.06101 0.000310182 0)
(8.06079 0.00028295 0)
(8.06058 0.000255964 0)
(8.06039 0.000229226 0)
(8.06022 0.000202736 0)
(8.06007 0.000176492 0)
(8.05993 0.000150497 0)
(8.05982 0.00012475 0)
(8.05972 9.9251e-05 0)
(8.05963 7.4001e-05 0)
(8.05957 4.89999e-05 0)
(8.05952 2.42483e-05 0)
(8.05949 -2.53686e-07 0)
(8.05947 -2.45056e-05 0)
(8.05947 -4.85072e-05 0)
(8.05949 -7.22582e-05 0)
(8.05952 -9.57583e-05 0)
(8.05957 -0.000119007 0)
(8.05964 -0.000142005 0)
(8.05972 -0.000164751 0)
(8.05981 -0.000187245 0)
(8.05992 -0.000209487 0)
(8.06005 -0.000231477 0)
(8.06019 -0.000253216 0)
(8.06034 -0.000274702 0)
(8.06051 -0.000295936 0)
(8.0607 -0.000316919 0)
(8.06089 -0.000337649 0)
(8.06111 -0.000358129 0)
(8.06133 -0.000378356 0)
(8.06157 -0.000398333 0)
(8.06182 -0.00041806 0)
(8.06209 -0.000437536 0)
(8.06237 -0.000456762 0)
(8.06266 -0.00047574 0)
(8.06296 -0.000494468 0)
(8.06328 -0.000512949 0)
(8.06361 -0.000531183 0)
(8.06395 -0.00054917 0)
(8.06431 -0.000566912 0)
(8.06467 -0.00058441 0)
(8.06505 -0.000601663 0)
(8.06544 -0.000618674 0)
(8.06584 -0.000635444 0)
(8.06625 -0.000651973 0)
(8.06667 -0.000668263 0)
(8.06711 -0.000684314 0)
(8.06755 -0.000700129 0)
(8.06801 -0.000715709 0)
(8.06847 -0.000731055 0)
(8.06895 -0.000746168 0)
(8.06944 -0.00076105 0)
(8.06993 -0.000775703 0)
(8.07044 -0.000790127 0)
(8.07095 -0.000804326 0)
(8.07148 -0.000818299 0)
(8.07201 -0.000832049 0)
(8.07256 -0.000845578 0)
(8.07311 -0.000858887 0)
(8.07367 -0.000871979 0)
(8.07424 -0.000884854 0)
(8.07482 -0.000897514 0)
(8.07541 -0.000909963 0)
(8.07601 -0.0009222 0)
(8.07661 -0.000934229 0)
(8.07722 -0.00094605 0)
(8.07784 -0.000957667 0)
(8.07847 -0.00096908 0)
(8.07911 -0.000980292 0)
(8.07975 -0.000991305 0)
(8.0804 -0.00100212 0)
(8.08106 -0.00101274 0)
(8.08173 -0.00102317 0)
(8.0824 -0.0010334 0)
(8.08308 -0.00104344 0)
(8.08376 -0.0010533 0)
(8.08445 -0.00106297 0)
(8.08515 -0.00107246 0)
(8.08586 -0.00108176 0)
(8.08657 -0.00109088 0)
(8.08729 -0.00109983 0)
(8.08801 -0.00110859 0)
(8.08874 -0.00111719 0)
(8.08948 -0.00112561 0)
(8.09022 -0.00113386 0)
(8.09096 -0.00114194 0)
(8.09172 -0.00114985 0)
(8.09247 -0.00115759 0)
(8.09324 -0.00116518 0)
(8.094 -0.00117259 0)
(8.09478 -0.00117985 0)
(8.09555 -0.00118695 0)
(8.09634 -0.0011939 0)
(8.09712 -0.00120068 0)
(8.09791 -0.00120732 0)
(8.09871 -0.0012138 0)
(8.09951 -0.00122013 0)
(8.10031 -0.00122631 0)
(8.10112 -0.00123235 0)
(8.10194 -0.00123824 0)
(8.10275 -0.00124398 0)
(8.10357 -0.00124958 0)
(8.1044 -0.00125504 0)
(8.10522 -0.00126037 0)
(8.10606 -0.00126555 0)
(8.10689 -0.0012706 0)
(8.10773 -0.00127551 0)
(8.10857 -0.00128029 0)
(8.10942 -0.00128494 0)
(8.11026 -0.00128945 0)
(8.11111 -0.00129384 0)
(8.11197 -0.0012981 0)
(8.11283 -0.00130223 0)
(8.11369 -0.00130624 0)
(8.11455 -0.00131013 0)
(8.11541 -0.00131389 0)
(8.11628 -0.00131753 0)
(8.11715 -0.00132106 0)
(8.11802 -0.00132446 0)
(8.1189 -0.00132775 0)
(8.11977 -0.00133092 0)
(8.12065 -0.00133398 0)
(8.12153 -0.00133693 0)
(8.12242 -0.00133977 0)
(8.1233 -0.00134249 0)
(8.12419 -0.00134511 0)
(8.12508 -0.00134762 0)
(8.12597 -0.00135003 0)
(8.12686 -0.00135233 0)
(8.12775 -0.00135452 0)
(8.12865 -0.00135662 0)
(8.12954 -0.00135861 0)
(8.13044 -0.00136051 0)
(8.13134 -0.0013623 0)
(8.13224 -0.001364 0)
(8.13314 -0.00136561 0)
(8.13405 -0.00136712 0)
(8.13495 -0.00136853 0)
(8.13585 -0.00136986 0)
(8.13676 -0.00137109 0)
(8.13766 -0.00137223 0)
(8.13857 -0.00137329 0)
(8.13948 -0.00137426 0)
(8.14039 -0.00137514 0)
(8.1413 -0.00137594 0)
(8.14221 -0.00137665 0)
(8.14312 -0.00137729 0)
(8.14403 -0.00137784 0)
(8.14494 -0.00137831 0)
(8.14585 -0.0013787 0)
(8.14676 -0.00137901 0)
(8.14767 -0.00137925 0)
(8.14858 -0.00137941 0)
(8.1495 -0.0013795 0)
(8.15041 -0.00137951 0)
(8.15132 -0.00137945 0)
(8.15223 -0.00137932 0)
(8.15315 -0.00137912 0)
(8.15406 -0.00137886 0)
(8.15497 -0.00137852 0)
(8.15588 -0.00137812 0)
(8.15679 -0.00137765 0)
(8.1577 -0.00137711 0)
(8.15861 -0.00137651 0)
(8.15952 -0.00137585 0)
(8.16043 -0.00137513 0)
(8.16134 -0.00137434 0)
(8.16225 -0.00137349 0)
(8.16316 -0.00137259 0)
(8.16407 -0.00137162 0)
(8.16498 -0.0013706 0)
(8.16588 -0.00136952 0)
(8.16679 -0.00136839 0)
(8.16769 -0.0013672 0)
(8.1686 -0.00136596 0)
(8.1695 -0.00136466 0)
(8.1704 -0.00136331 0)
(8.17131 -0.0013619 0)
(8.17221 -0.00136045 0)
(8.17311 -0.00135894 0)
(8.17401 -0.00135738 0)
(8.1749 -0.00135578 0)
(8.1758 -0.00135412 0)
(8.1767 -0.00135241 0)
(8.17759 -0.00135066 0)
(8.17849 -0.00134886 0)
(8.17938 -0.00134701 0)
(8.18027 -0.00134511 0)
(8.18116 -0.00134317 0)
(8.18205 -0.00134117 0)
(8.18293 -0.00133914 0)
(8.18382 -0.00133705 0)
(8.18471 -0.00133492 0)
(8.18559 -0.00133274 0)
(8.18647 -0.00133052 0)
(8.18735 -0.00132825 0)
(8.18823 -0.00132593 0)
(8.18911 -0.00132357 0)
(8.18998 -0.00132115 0)
(8.19086 -0.00131869 0)
(8.19173 -0.00131618 0)
(8.1926 -0.00131362 0)
(8.19347 -0.00131101 0)
(8.19434 -0.00130834 0)
(8.1952 -0.00130562 0)
(8.19607 -0.00130285 0)
(8.19693 -0.00130002 0)
(8.19779 -0.00129713 0)
(8.19865 -0.00129418 0)
(8.1995 -0.00129117 0)
(8.20036 -0.00128808 0)
(8.20121 -0.00128493 0)
(8.20206 -0.0012817 0)
(8.20291 -0.00127839 0)
(8.20375 -0.001275 0)
(8.2046 -0.00127151 0)
(8.20544 -0.00126793 0)
(8.20628 -0.00126423 0)
(8.20711 -0.00126042 0)
(8.20795 -0.00125648 0)
(8.20878 -0.0012524 0)
(8.20961 -0.0012481 0)
(8.21043 -0.0012438 0)
(8.21126 -0.00123837 0)
(8.21203 -0.00123634 0)
(8.21313 -0.00121556 0)
(9.94546 0.725989 0)
(9.82597 0.524082 0)
(9.67686 0.393795 0)
(9.54203 0.299195 0)
(9.42458 0.230721 0)
(9.32183 0.183519 0)
(9.23371 0.150473 0)
(9.15852 0.126349 0)
(9.09364 0.108291 0)
(9.03704 0.0945004 0)
(8.98724 0.0837044 0)
(8.94303 0.0750516 0)
(8.90344 0.0679811 0)
(8.86771 0.0621063 0)
(8.83521 0.057152 0)
(8.80548 0.0529196 0)
(8.77812 0.0492632 0)
(8.75282 0.0460732 0)
(8.7293 0.043266 0)
(8.70736 0.0407765 0)
(8.68681 0.0385535 0)
(8.66751 0.0365562 0)
(8.6493 0.0347518 0)
(8.6321 0.0331132 0)
(8.6158 0.0316186 0)
(8.60031 0.0302494 0)
(8.58558 0.0289902 0)
(8.57152 0.0278282 0)
(8.55809 0.0267523 0)
(8.54523 0.0257531 0)
(8.53291 0.0248225 0)
(8.52108 0.0239535 0)
(8.50972 0.02314 0)
(8.49877 0.0223767 0)
(8.48823 0.0216591 0)
(8.47806 0.0209828 0)
(8.46824 0.0203445 0)
(8.45875 0.0197408 0)
(8.44957 0.0191689 0)
(8.44067 0.0186263 0)
(8.43206 0.0181106 0)
(8.42371 0.0176198 0)
(8.4156 0.0171522 0)
(8.40773 0.0167059 0)
(8.40008 0.0162795 0)
(8.39264 0.0158716 0)
(8.38541 0.0154809 0)
(8.37837 0.0151064 0)
(8.37151 0.014747 0)
(8.36483 0.0144017 0)
(8.35831 0.0140696 0)
(8.35196 0.0137501 0)
(8.34577 0.0134422 0)
(8.33972 0.0131453 0)
(8.33382 0.0128589 0)
(8.32805 0.0125823 0)
(8.32242 0.0123149 0)
(8.31691 0.0120564 0)
(8.31153 0.0118061 0)
(8.30627 0.0115637 0)
(8.30112 0.0113288 0)
(8.29608 0.011101 0)
(8.29115 0.01088 0)
(8.28632 0.0106654 0)
(8.2816 0.0104569 0)
(8.27697 0.0102542 0)
(8.27244 0.010057 0)
(8.26799 0.00986521 0)
(8.26364 0.00967843 0)
(8.25937 0.00949649 0)
(8.25519 0.00931917 0)
(8.25109 0.00914628 0)
(8.24707 0.00897762 0)
(8.24313 0.00881301 0)
(8.23926 0.0086523 0)
(8.23546 0.00849531 0)
(8.23174 0.0083419 0)
(8.22809 0.00819193 0)
(8.2245 0.00804526 0)
(8.22098 0.00790176 0)
(8.21753 0.00776131 0)
(8.21414 0.00762379 0)
(8.21081 0.0074891 0)
(8.20754 0.00735713 0)
(8.20434 0.00722778 0)
(8.20119 0.00710095 0)
(8.19809 0.00697656 0)
(8.19506 0.00685451 0)
(8.19207 0.00673473 0)
(8.18914 0.00661713 0)
(8.18627 0.00650164 0)
(8.18344 0.00638819 0)
(8.18067 0.00627672 0)
(8.17794 0.00616714 0)
(8.17526 0.00605941 0)
(8.17263 0.00595345 0)
(8.17005 0.00584922 0)
(8.16751 0.00574665 0)
(8.16502 0.0056457 0)
(8.16257 0.00554631 0)
(8.16017 0.00544843 0)
(8.15781 0.00535203 0)
(8.15549 0.00525704 0)
(8.15321 0.00516343 0)
(8.15098 0.00507116 0)
(8.14878 0.00498018 0)
(8.14663 0.00489046 0)
(8.14451 0.00480197 0)
(8.14243 0.00471465 0)
(8.14039 0.00462849 0)
(8.13839 0.00454345 0)
(8.13642 0.0044595 0)
(8.13449 0.0043766 0)
(8.1326 0.00429473 0)
(8.13074 0.00421386 0)
(8.12891 0.00413396 0)
(8.12712 0.004055 0)
(8.12537 0.00397697 0)
(8.12365 0.00389983 0)
(8.12196 0.00382356 0)
(8.1203 0.00374815 0)
(8.11868 0.00367356 0)
(8.11709 0.00359978 0)
(8.11553 0.00352679 0)
(8.114 0.00345457 0)
(8.1125 0.0033831 0)
(8.11103 0.00331237 0)
(8.1096 0.00324234 0)
(8.10819 0.00317302 0)
(8.10681 0.00310439 0)
(8.10546 0.00303642 0)
(8.10414 0.00296911 0)
(8.10285 0.00290243 0)
(8.10159 0.00283639 0)
(8.10035 0.00277096 0)
(8.09915 0.00270613 0)
(8.09797 0.00264189 0)
(8.09682 0.00257824 0)
(8.09569 0.00251515 0)
(8.09459 0.00245263 0)
(8.09352 0.00239065 0)
(8.09247 0.00232922 0)
(8.09145 0.00226831 0)
(8.09046 0.00220793 0)
(8.08949 0.00214807 0)
(8.08855 0.00208871 0)
(8.08763 0.00202986 0)
(8.08673 0.0019715 0)
(8.08586 0.00191363 0)
(8.08502 0.00185624 0)
(8.0842 0.00179933 0)
(8.0834 0.00174289 0)
(8.08263 0.00168692 0)
(8.08188 0.00163141 0)
(8.08115 0.00157636 0)
(8.08045 0.00152176 0)
(8.07977 0.00146762 0)
(8.07911 0.00141392 0)
(8.07847 0.00136066 0)
(8.07786 0.00130784 0)
(8.07727 0.00125547 0)
(8.0767 0.00120353 0)
(8.07615 0.00115202 0)
(8.07562 0.00110094 0)
(8.07512 0.0010503 0)
(8.07463 0.00100008 0)
(8.07417 0.000950291 0)
(8.07373 0.000900927 0)
(8.07331 0.000851989 0)
(8.07291 0.000803474 0)
(8.07253 0.000755383 0)
(8.07216 0.000707715 0)
(8.07182 0.000660469 0)
(8.0715 0.000613646 0)
(8.0712 0.000567244 0)
(8.07091 0.000521264 0)
(8.07065 0.000475706 0)
(8.07041 0.000430569 0)
(8.07018 0.000385855 0)
(8.06997 0.000341562 0)
(8.06978 0.000297692 0)
(8.06961 0.000254245 0)
(8.06946 0.00021122 0)
(8.06932 0.000168619 0)
(8.0692 0.000126441 0)
(8.0691 8.46876e-05 0)
(8.06902 4.33582e-05 0)
(8.06895 2.45345e-06 0)
(8.0689 -3.80263e-05 0)
(8.06887 -7.80806e-05 0)
(8.06885 -0.000117709 0)
(8.06885 -0.000156912 0)
(8.06887 -0.000195688 0)
(8.0689 -0.000234038 0)
(8.06895 -0.000271962 0)
(8.06902 -0.000309459 0)
(8.0691 -0.000346529 0)
(8.06919 -0.000383173 0)
(8.0693 -0.00041939 0)
(8.06942 -0.000455181 2.81388e-103)
(8.06956 -0.000490546 -2.81375e-103)
(8.06972 -0.000525486 0)
(8.06989 -0.00056 0)
(8.07007 -0.00059409 0)
(8.07027 -0.000627756 0)
(8.07048 -0.000660998 0)
(8.0707 -0.000693818 0)
(8.07094 -0.000726217 0)
(8.07119 -0.000758195 0)
(8.07145 -0.000789754 0)
(8.07173 -0.000820894 0)
(8.07202 -0.000851617 0)
(8.07232 -0.000881925 0)
(8.07264 -0.000911819 0)
(8.07297 -0.000941301 0)
(8.07331 -0.000970371 0)
(8.07366 -0.000999033 0)
(8.07402 -0.00102729 0)
(8.0744 -0.00105514 0)
(8.07478 -0.00108258 0)
(8.07518 -0.00110963 0)
(8.07559 -0.00113628 0)
(8.07601 -0.00116253 0)
(8.07644 -0.00118838 0)
(8.07688 -0.00121385 0)
(8.07733 -0.00123893 0)
(8.07779 -0.00126362 0)
(8.07827 -0.00128792 0)
(8.07875 -0.00131185 0)
(8.07924 -0.00133539 0)
(8.07974 -0.00135857 0)
(8.08025 -0.00138136 0)
(8.08077 -0.00140379 0)
(8.0813 -0.00142586 0)
(8.08184 -0.00144756 0)
(8.08239 -0.0014689 0)
(8.08294 -0.00148988 0)
(8.08351 -0.0015105 0)
(8.08408 -0.00153078 0)
(8.08466 -0.00155071 0)
(8.08525 -0.00157029 0)
(8.08585 -0.00158953 0)
(8.08646 -0.00160844 0)
(8.08707 -0.001627 0)
(8.08769 -0.00164524 0)
(8.08832 -0.00166315 0)
(8.08896 -0.00168073 0)
(8.0896 -0.00169799 0)
(8.09025 -0.00171493 0)
(8.09091 -0.00173156 0)
(8.09158 -0.00174787 0)
(8.09225 -0.00176387 0)
(8.09292 -0.00177957 0)
(8.09361 -0.00179496 0)
(8.0943 -0.00181006 0)
(8.095 -0.00182485 0)
(8.0957 -0.00183936 0)
(8.09641 -0.00185357 0)
(8.09712 -0.00186749 0)
(8.09784 -0.00188113 0)
(8.09857 -0.00189449 0)
(8.0993 -0.00190757 0)
(8.10004 -0.00192038 0)
(8.10078 -0.00193291 0)
(8.10153 -0.00194518 0)
(8.10228 -0.00195717 0)
(8.10304 -0.00196891 0)
(8.1038 -0.00198038 0)
(8.10457 -0.00199159 0)
(8.10534 -0.00200255 0)
(8.10611 -0.00201325 0)
(8.1069 -0.00202371 0)
(8.10768 -0.00203392 0)
(8.10847 -0.00204388 0)
(8.10926 -0.0020536 0)
(8.11006 -0.00206309 0)
(8.11086 -0.00207233 0)
(8.11167 -0.00208134 0)
(8.11248 -0.00209012 0)
(8.11329 -0.00209868 0)
(8.1141 -0.002107 0)
(8.11492 -0.0021151 0)
(8.11575 -0.00212298 0)
(8.11657 -0.00213064 0)
(8.1174 -0.00213808 0)
(8.11824 -0.00214531 0)
(8.11907 -0.00215233 0)
(8.11991 -0.00215914 0)
(8.12075 -0.00216574 0)
(8.12159 -0.00217214 0)
(8.12244 -0.00217833 0)
(8.12329 -0.00218433 0)
(8.12414 -0.00219012 0)
(8.125 -0.00219572 0)
(8.12585 -0.00220113 0)
(8.12671 -0.00220635 0)
(8.12757 -0.00221137 0)
(8.12844 -0.00221622 0)
(8.1293 -0.00222087 0)
(8.13017 -0.00222535 0)
(8.13104 -0.00222964 0)
(8.13191 -0.00223376 0)
(8.13278 -0.0022377 0)
(8.13366 -0.00224147 0)
(8.13453 -0.00224507 0)
(8.13541 -0.0022485 0)
(8.13629 -0.00225176 0)
(8.13717 -0.00225486 0)
(8.13805 -0.00225779 0)
(8.13894 -0.00226057 0)
(8.13982 -0.00226318 0)
(8.14071 -0.00226564 0)
(8.14159 -0.00226795 0)
(8.14248 -0.0022701 0)
(8.14337 -0.0022721 0)
(8.14426 -0.00227396 0)
(8.14515 -0.00227566 0)
(8.14604 -0.00227723 0)
(8.14693 -0.00227865 0)
(8.14782 -0.00227993 0)
(8.14872 -0.00228108 0)
(8.14961 -0.00228208 0)
(8.1505 -0.00228296 0)
(8.1514 -0.0022837 0)
(8.15229 -0.00228431 0)
(8.15319 -0.00228479 0)
(8.15408 -0.00228514 0)
(8.15498 -0.00228537 0)
(8.15588 -0.00228548 0)
(8.15677 -0.00228547 0)
(8.15767 -0.00228533 0)
(8.15856 -0.00228508 0)
(8.15946 -0.00228472 0)
(8.16036 -0.00228424 0)
(8.16125 -0.00228364 0)
(8.16215 -0.00228294 0)
(8.16304 -0.00228212 0)
(8.16394 -0.0022812 0)
(8.16483 -0.00228018 0)
(8.16573 -0.00227904 0)
(8.16662 -0.00227781 0)
(8.16752 -0.00227648 0)
(8.16841 -0.00227504 0)
(8.1693 -0.00227351 0)
(8.1702 -0.00227188 0)
(8.17109 -0.00227015 0)
(8.17198 -0.00226833 0)
(8.17287 -0.00226642 0)
(8.17376 -0.00226442 0)
(8.17465 -0.00226232 0)
(8.17554 -0.00226014 0)
(8.17642 -0.00225787 0)
(8.17731 -0.00225551 0)
(8.1782 -0.00225307 0)
(8.17908 -0.00225054 0)
(8.17997 -0.00224793 0)
(8.18085 -0.00224523 0)
(8.18173 -0.00224245 0)
(8.18261 -0.00223959 0)
(8.18349 -0.00223666 0)
(8.18437 -0.00223364 0)
(8.18525 -0.00223054 0)
(8.18613 -0.00222736 0)
(8.187 -0.0022241 0)
(8.18788 -0.00222077 0)
(8.18875 -0.00221736 0)
(8.18962 -0.00221387 0)
(8.19049 -0.0022103 0)
(8.19136 -0.00220665 0)
(8.19223 -0.00220293 0)
(8.19309 -0.00219913 0)
(8.19396 -0.00219524 0)
(8.19482 -0.00219128 0)
(8.19568 -0.00218724 0)
(8.19654 -0.00218311 0)
(8.1974 -0.0021789 0)
(8.19826 -0.0021746 0)
(8.19911 -0.00217022 0)
(8.19996 -0.00216575 0)
(8.20082 -0.00216119 0)
(8.20167 -0.00215653 0)
(8.20251 -0.00215177 0)
(8.20336 -0.00214691 0)
(8.20421 -0.00214194 0)
(8.20505 -0.00213686 0)
(8.20589 -0.00213166 0)
(8.20673 -0.00212634 0)
(8.20756 -0.00212089 0)
(8.2084 -0.00211529 0)
(8.20923 -0.00210954 0)
(8.21006 -0.00210363 0)
(8.21089 -0.00209754 0)
(8.21171 -0.00209126 0)
(8.21253 -0.00208476 0)
(8.21335 -0.00207802 0)
(8.21417 -0.00207099 0)
(8.21498 -0.0020637 0)
(8.2158 -0.00205563 0)
(8.21656 -0.00204811 0)
(8.21765 -0.0020317 0)
(9.95588 0.782308 0)
(9.89615 0.625112 0)
(9.80208 0.503554 0)
(9.70137 0.409243 0)
(9.60377 0.335327 0)
(9.51098 0.278483 0)
(9.42517 0.234872 0)
(9.34747 0.200928 0)
(9.2775 0.174177 0)
(9.21448 0.152874 0)
(9.15765 0.135686 0)
(9.10626 0.121623 0)
(9.05962 0.109968 0)
(9.01709 0.100191 0)
(8.97816 0.0918972 0)
(8.94235 0.0847893 0)
(8.90929 0.0786404 0)
(8.87865 0.0732758 0)
(8.85014 0.0685592 0)
(8.82354 0.0643834 0)
(8.79863 0.0606626 0)
(8.77523 0.057328 0)
(8.75321 0.0543237 0)
(8.73242 0.0516036 0)
(8.71275 0.0491298 0)
(8.69411 0.0468706 0)
(8.67639 0.0447996 0)
(8.65952 0.0428944 0)
(8.64344 0.0411358 0)
(8.62809 0.0395076 0)
(8.6134 0.0379958 0)
(8.59933 0.0365882 0)
(8.58583 0.0352745 0)
(8.57287 0.0340455 0)
(8.5604 0.032893 0)
(8.54841 0.0318102 0)