# p  FACE_DATA 11666
# x y z  p
0.0596589 0.0485184 0.00125 -35.5157
0.101562 0.0658665 0.00124988 -61.7256
0.134326 0.0763298 0.00125007 -71.0118
0.0156349 -0.00987769 0.00124999 -29.9979
0.00986925 -0.00870838 0.00875 -50.898
0.015635 -0.00987629 0.00874999 -30.6199
0.0241069 -0.0106137 0.00124999 -20.8349
0.0176922 -0.0101479 0.00874997 -40.571
0.0241084 -0.0106006 0.00875 -19.4508
0.00763978 -0.00781489 0.00875 -27.079
0.00249986 0.007756 0.00124998 73.023
0.00249976 0.00775583 0.00875 72.655
0.0100541 0.0171346 0.00125 31.1218
0.0100541 0.0171346 0.00875 30.7801
0.0346937 0.0353866 0.00125 -14.0756
0.0346936 0.0353866 0.00875 -14.3657
0.0515461 0.0446016 0.00125 -34.8431
0.0515461 0.0446016 0.00875 -35.037
0.0596591 0.0485182 0.00875 -35.6293
0.0739278 0.0550046 0.00124997 -46.2887
0.0739295 0.0549989 0.00875 -47.3501
0.0761697 0.0559647 0.00125002 -44.7195
0.0761716 0.055959 0.00875 -43.049
0.0992795 0.0650143 0.00125006 -57.2776
0.0992798 0.0650141 0.00875 -57.3992
0.124167 0.0734248 0.0012499 -77.5179
0.124168 0.0734247 0.00875 -77.7013
0.126 0.0739553 0.0012501 -78.4345
0.126001 0.0739544 0.00875 -78.6128
0.00348497 -0.00540105 0.00375 -3.24373
0.00348498 -0.00540103 0.00125 -13.5109
0.00390561 0.00991142 0.00125001 65.6599
0.00390554 0.00991136 0.00375001 81.0984
0.0123385 0.0192647 0.00125 25.4303
0.0123385 0.0192647 0.00375 30.9155
0.0285313 0.0316828 0.00375 -17.8533
0.0285313 0.0316828 0.00125 -16.7198
0.0451676 0.0412112 0.00375 -23.9516
0.0618131 0.0495539 0.00374999 -37.4886
0.0596589 0.0485185 0.00375001 -35.7409
0.0783681 0.0569126 0.00125 -48.9203
0.0783681 0.0569126 0.00374999 -49.3809
0.0867428 0.0603561 0.00375001 -59.2725
0.101562 0.0658665 0.00375 -62.341
0.103292 0.0664919 0.00124992 -66.2215
0.103292 0.066492 0.00374999 -67.0875
0.111447 0.0692183 0.00375004 -66.1642
0.134325 0.0763333 0.00374992 -72.2384
0.136722 0.0770123 0.00124995 -66.908
0.136721 0.0770159 0.00375005 -70.4165
0.145051 0.0793848 0.00375008 -74.0466
0.0156347 -0.00987844 0.00375 -37.8939
0.0136076 -0.00949862 0.00125 -32.3515
0.0136076 -0.00949862 0.00375 -40.7426
0.0176912 -0.0101618 0.00374995 -49.4512
0.0197529 -0.0103145 0.00125003 -31.4664
0.0197524 -0.0103197 0.00375004 -41.1504
0.0241068 -0.0106201 0.00374998 -28.0541
0.0217146 -0.0104413 0.00125002 -23.6392
0.0217143 -0.0104492 0.00375006 -31.9383
0.0282211 -0.0108018 0.00375 -30.1585
0.0302103 -0.0108156 0.00375 -23.8279
0.0076396 -0.0078153 0.00375001 -29.6092
0.00547024 -0.00679722 0.00125 -45.2426
0.00143952 -0.00309457 0.00125002 34.9283
0.00249975 0.00775596 0.00374998 91.8539
0.0058448 0.0124572 0.00375 63.3887
0.0079031 0.0148477 0.00375 56.372
0.0100541 0.0171346 0.00375 38.2657
0.0141149 0.0208497 0.00374999 29.4086
0.0201896 0.0257898 0.00125 6.53927
0.0326383 0.0341513 0.00375 -10.5618
0.0346936 0.0353866 0.00375 -14.2973
0.0367466 0.0366202 0.00125 -17.9729
0.0367466 0.0366202 0.00375 -18.7347
0.0515461 0.0446016 0.00374999 -35.0586
0.0531428 0.0453811 0.00125 -37.1563
0.0639772 0.0505932 0.00375 -40.0868
0.0700375 0.053339 0.00125 -43.2876
0.0739264 0.0550072 0.00374994 -46.8536
0.0722766 0.0543039 0.00125 -44.4301
0.0761684 0.0559673 0.00375005 -46.4017
0.0805723 0.0578565 0.00125 -51.1757
0.0805723 0.0578565 0.00375 -51.8731
0.0930067 0.0626838 0.00125 -54.1761
0.0952866 0.0635344 0.00125 -56.3465
0.099279 0.0650161 0.00375 -58.5683
0.0969659 0.0641545 0.00125 -57.8445
0.105094 0.0670986 0.0012501 -67.6728
0.105092 0.0671034 0.0037499 -68.6098
0.113773 0.0699913 0.00374998 -63.97
0.120117 0.072101 0.00374998 -68.2958
0.120118 0.0720993 0.00125 -65.713
0.124167 0.0734249 0.00375 -79.233
0.12242 0.0728681 0.00125 -70.9115
0.125998 0.0739606 0.00374987 -79.0015
0.128392 0.0746367 0.00125 -66.2271
0.139046 0.0776819 0.00375 -74.2663
0.0156348 -0.00987736 0.00625 -38.2603
0.0136075 -0.00949862 0.00875 -32.8782
0.0136075 -0.00949862 0.00625 -41.0516
0.0176916 -0.0101555 0.00624994 -50.0053
0.0197534 -0.0103035 0.00875 -30.7485
0.0197528 -0.0103122 0.00625 -40.5701
0.0241076 -0.0106114 0.00625002 -27.3724
0.0217161 -0.0104253 0.00874999 -24.6874
0.0217152 -0.0104383 0.00625004 -32.6543
0.0282212 -0.0108018 0.00624999 -30.4407
0.0302103 -0.0108155 0.00625 -23.9783
0.00348497 -0.00540105 0.00625 -3.71558
0.00348498 -0.00540103 0.00875 -14.1573
0.00763959 -0.00781529 0.00625 -29.9196
0.00547019 -0.00679721 0.00875 -45.7858
0.00249971 0.0077559 0.00624999 91.5052
0.00390549 0.00991128 0.00625 80.7811
0.00584477 0.0124572 0.00625 63.1244
0.00790308 0.0148476 0.00875 45.0265
0.0100541 0.0171346 0.00625001 38.0379
0.0123385 0.0192647 0.00624999 30.6818
0.0141149 0.0208497 0.00625001 29.1382
0.0158688 0.0224099 0.00874999 17.5565
0.0182596 0.0243548 0.00874999 2.90625
0.0201895 0.0257898 0.00875 6.14753
0.0285313 0.0316828 0.00625 -17.9942
0.0285313 0.0316829 0.00875 -17.0479
0.0326383 0.0341513 0.00875 -10.528
0.0346936 0.0353866 0.00625 -14.4638
0.0367466 0.0366202 0.00875 -18.2343
0.0367466 0.0366202 0.00625 -18.8691
0.0409383 0.038949 0.00625 -22.8407
0.0451676 0.0412112 0.00625 -24.0707
0.0451676 0.0412112 0.00875 -23.2771
0.0515461 0.0446016 0.00625 -35.1492
0.0531429 0.0453804 0.00875 -37.4211
0.0553392 0.0464351 0.00875 -30.7276
0.0618131 0.0495539 0.00624999 -37.5937
0.059659 0.0485184 0.00625 -35.8078
0.0639771 0.0505932 0.00625 -40.1865
0.0739276 0.0550035 0.00624998 -47.4866
0.0722765 0.0543039 0.00875 -44.7678
0.0761697 0.0559636 0.00625003 -45.6561
0.0867429 0.060356 0.00625 -59.2899
0.0930069 0.0626832 0.00875001 -54.0777
0.0952867 0.0635344 0.00875 -56.5422
0.0992791 0.065016 0.00625 -58.6384
0.096966 0.0641543 0.00875 -58.0757
0.107436 0.0678759 0.00625005 -59.9078
0.111447 0.0692181 0.00624994 -66.5827
0.113773 0.0699911 0.00625004 -63.9388
0.120117 0.0721009 0.00625003 -68.3251
0.124167 0.0734248 0.00625009 -79.3246
0.122419 0.0728681 0.00875 -71.0527
0.125999 0.0739601 0.00624999 -79.0781
0.128392 0.074636 0.00875 -66.1305
0.128391 0.0746415 0.00624997 -69.2049
0.139047 0.0776819 0.00625 -74.6677
0.145051 0.0793845 0.00625001 -73.9764
0.00986926 -0.00870838 0.00124999 -50.4333
0.0076398 -0.00781489 0.00125 -26.614
0.0176917 -0.0101574 0.00125007 -39.73
0.000200385 0.00101878 0.00124999 89.6153
0.0265126 0.0304203 0.00125 -13.2257
0.0409383 0.038949 0.00125002 -21.6151
0.0430512 0.0400793 0.00124999 -21.1461
0.0844473 0.0594811 0.00125001 -62.2747
0.109733 0.0686517 0.00125 -62.9099
0.142658 0.0786991 0.00125 -75.0981
0.0264126 -0.0107599 0.00124996 -25.4109
0.0264128 -0.0107599 0.00875 -26.147
0.00030057 -0.000910135 0.00124996 66.4171
0.000300479 -0.00090986 0.00875 65.7387
0.00143944 -0.00309431 0.00875 34.1745
0.000200372 0.00101871 0.00875 89.0734
0.0245666 0.0290269 0.00125 -2.00215
0.0220896 0.0271946 0.00125 5.60361
0.0245669 0.0290265 0.00875 -2.26149
0.0220899 0.0271942 0.00875 5.21761
0.0265126 0.0304203 0.00875 -13.5722
0.0409384 0.0389488 0.00875 -21.7918
0.0430512 0.0400793 0.00875 -21.3839
0.0574973 0.0474804 0.00125 -34.2125
0.055339 0.0464357 0.00125 -30.7145
0.0574975 0.0474802 0.00875 -34.4445
0.082793 0.0588075 0.00124999 -54.4787
0.082793 0.0588075 0.00875 -54.5802
0.0844474 0.0594808 0.00875 -62.4129
0.107436 0.0678775 0.00124998 -57.7196
0.101562 0.0658665 0.00875 -62.1135
0.107439 0.067868 0.00875 -54.279
0.109734 0.0686517 0.00875 -64.2549
0.132483 0.0758129 0.00125 -70.9096
0.132483 0.0758129 0.00875 -71.2766
0.134327 0.0763232 0.00875 -72.4125
0.140815 0.0781855 0.00125 -72.3359
0.140816 0.0781855 0.00875 -72.865
0.142658 0.0786984 0.00875 -75.3164
0.00986924 -0.00870838 0.00375 -61.1434
0.011654 -0.00912788 0.00125001 -48.635
0.0116539 -0.00912788 0.00374999 -60.0637
0.000200379 0.00101875 0.00374999 120.592
0.0013868 0.00543825 0.00125 86.738
0.000586819 0.00298345 0.00125 92.7772
0.000586809 0.0029834 0.00375 119.904
0.0158685 0.0224104 0.00124999 17.945
0.0182592 0.0243553 0.00125003 3.15416
0.0158681 0.0224108 0.00375001 21.9291
0.0182589 0.0243556 0.00374999 4.22698
0.0265126 0.0304203 0.00374999 -13.1167
0.0430512 0.0400793 0.00375 -22.0589
0.0409382 0.0389491 0.00375 -22.7569
0.0451676 0.0412112 0.00125 -23.0577
0.0618131 0.0495539 0.00125 -37.141
0.0700363 0.0533415 0.00375 -45.0637
0.0677828 0.0523723 0.00125 -52.1603
0.0677816 0.0523749 0.00374999 -51.0244
0.0844463 0.0594837 0.00375001 -61.831
0.0867438 0.0603536 0.00125 -57.9528
0.109733 0.0686517 0.00375 -65.4944
0.107435 0.0678823 0.00375006 -61.6787
0.111448 0.0692157 0.00125 -63.9385
0.117778 0.0713216 0.00125 -66.4999
0.117778 0.0713233 0.00375003 -67.5091
0.142656 0.0787041 0.00374996 -75.8204
0.145053 0.0793798 0.00125 -71.0538
0.0264127 -0.0107599 0.00374998 -32.6392
0.0282212 -0.0108018 0.00125 -23.9089
0.0302103 -0.0108155 0.00125 -18.9592
0.00547002 -0.00679765 0.00374999 -46.5927
0.00143948 -0.00309443 0.00375002 59.4799
0.000300522 -0.00090999 0.00374997 98.3223
0.00138673 0.00543826 0.00375 108.526
0.00584483 0.0124572 0.00125 51.6656
0.00790312 0.0148477 0.00125 45.385
0.014115 0.0208496 0.00125 23.4003
0.0201895 0.0257898 0.00374999 8.1114
0.0220894 0.0271949 0.00375001 7.19006
0.0245664 0.0290271 0.00375 -0.660491
0.0305852 0.0329173 0.00375 -11.2573
0.0326383 0.0341513 0.00125 -10.2429
0.0305852 0.0329173 0.00125 -10.206
0.0388237 0.0378181 0.00124998 -26.1314
0.0388236 0.0378182 0.00375 -27.1693
0.0472819 0.042342 0.00375 -26.3551
0.0493989 0.0434742 0.00125 -28.8353
0.0493989 0.0434743 0.00375001 -29.2407
0.0472819 0.042342 0.00125 -25.5626
0.053141 0.0453847 0.00374996 -37.2869
0.0553372 0.0464394 0.00375002 -32.584
0.0574973 0.0474805 0.00374999 -34.2964
0.0639772 0.0505932 0.00125 -39.834
0.0661609 0.0516418 0.00125 -43.7528
0.0661609 0.0516419 0.00375 -43.7262
0.0722765 0.0543039 0.00374998 -45.2308
0.082793 0.0588075 0.00375 -55.2455
0.0890204 0.0612055 0.00374999 -55.6196
0.0906999 0.0618265 0.00125 -55.4638
0.0906997 0.0618269 0.00375 -55.8933
0.0890204 0.0612055 0.00125 -55.203
0.0930065 0.0626842 0.00375001 -55.6155
0.0952866 0.0635343 0.00374999 -57.5075
0.0969653 0.0641562 0.00375 -58.4272
0.113774 0.0699888 0.00125 -61.1956
0.116073 0.0707587 0.00125 -65.1147
0.116073 0.0707587 0.00375 -66.1807
0.12242 0.0728681 0.00375 -73.0927
0.128391 0.0746419 0.00375006 -69.2343
0.132483 0.0758129 0.00375 -72.0254
0.130713 0.075309 0.00125 -71.5625
0.130714 0.075309 0.00375 -71.9481
0.140816 0.0781856 0.00375 -74.5562
0.139046 0.0776818 0.00125 -71.7771
0.147379 0.080025 0.00374988 -83.795
0.149162 0.0804761 0.00125 -77.1008
0.149162 0.080476 0.00375 -78.4845
0.147379 0.0800251 0.00125 -83.5269
0.0264128 -0.0107599 0.00625001 -32.9353
0.0282212 -0.0108017 0.00875 -24.6639
0.0302103 -0.0108155 0.00875 -19.3334
0.00986925 -0.00870838 0.00625 -61.3909
0.0116539 -0.00912788 0.00875 -49.1235
0.0116539 -0.00912788 0.00625 -60.291
0.00547 -0.00679764 0.00625 -46.9838
0.00143945 -0.00309434 0.00625001 58.9126
0.000300489 -0.000909893 0.00624999 97.7447
0.000200374 0.00101872 0.00625 120.083
0.00138678 0.00543818 0.00875 86.3509
0.000586798 0.00298335 0.00875 92.3066
0.00138672 0.00543824 0.00625 108.143
0.000586801 0.00298336 0.00625 119.452
0.00390549 0.00991123 0.00875 65.2828
0.00584478 0.0124572 0.00875 51.3222
0.00790308 0.0148477 0.00624999 56.1007
0.0123384 0.0192647 0.00875 25.0567
0.0158684 0.0224104 0.00625 21.6772
0.0141149 0.0208496 0.00875 22.9994
0.0182593 0.0243552 0.00625 4.09998
0.0201895 0.0257898 0.00624999 7.88193
0.0220896 0.0271946 0.00625001 6.96786
0.0245666 0.0290269 0.00625 -0.80125
0.0265127 0.0304203 0.00625 -13.2908
0.0305852 0.0329173 0.00625 -11.4221
0.0326383 0.0341513 0.00625 -10.7151
0.0305852 0.0329173 0.00875 -10.5411
0.0388238 0.0378178 0.00875 -26.3973
0.0388237 0.0378181 0.00625 -27.29
0.0430512 0.0400793 0.00625 -22.1877
0.0472819 0.042342 0.00625 -26.4796
0.049399 0.0434743 0.00875 -29.0297
0.049399 0.0434742 0.00625 -29.3508
0.0472819 0.042342 0.00875 -25.7707
0.053141 0.0453844 0.00625 -37.4065
0.0553373 0.0464391 0.00625001 -32.6169
0.0574974 0.0474803 0.00625 -34.4155
0.0618132 0.0495539 0.00875 -37.3173
0.0639771 0.0505931 0.00875 -39.9967
0.0661609 0.0516419 0.00874999 -43.927
0.066161 0.0516419 0.00625 -43.8294
0.0700363 0.0533413 0.00625001 -45.157
0.0677828 0.052372 0.00875001 -52.3915
0.0677817 0.0523748 0.00624999 -51.1193
0.0700375 0.0533386 0.00875 -43.446
0.0722764 0.0543039 0.00625 -45.4161
0.0783681 0.0569126 0.00875 -49.5439
0.0783681 0.0569126 0.00625 -49.5568
0.0805723 0.0578565 0.00875 -51.6266
0.0805723 0.0578565 0.00625 -52.0713
0.082793 0.0588075 0.00625 -55.3163
0.0844464 0.0594835 0.00624997 -61.8968
0.0867439 0.0603532 0.00875 -57.9778
0.0890205 0.0612055 0.00625 -55.6964
0.0907001 0.0618259 0.00874999 -55.6999
0.0906999 0.0618264 0.00625 -56.037
0.0890204 0.0612055 0.00875 -55.3527
0.0930067 0.0626838 0.00625 -55.5455
0.0952866 0.0635343 0.00625 -57.5955
0.0969653 0.0641562 0.00625 -58.5434
0.101562 0.0658665 0.00625 -62.5712
0.103292 0.0664918 0.00874999 -66.6911
0.103292 0.0664919 0.00625 -67.3772
0.105096 0.0670889 0.00875001 -69.6414
0.105094 0.067097 0.00624998 -69.8254
0.109733 0.0686517 0.00625 -66.0059
0.111447 0.0692154 0.00875 -64.7892
0.113773 0.0699884 0.00875 -61.084
0.116073 0.0707587 0.00875 -65.2897
0.116073 0.0707587 0.00625 -66.2414
0.117778 0.0713215 0.00875 -66.7093
0.117778 0.0713233 0.00624996 -67.6
0.120118 0.0720992 0.00875 -65.7646
0.12242 0.0728681 0.00625 -73.1578
0.132483 0.0758129 0.00625 -72.2445
0.130713 0.075309 0.00875 -71.9504
0.130713 0.0753091 0.00625 -72.1494
0.134326 0.0763288 0.00624998 -73.1361
0.136724 0.0770058 0.00875 -64.4653
0.136722 0.0770114 0.00625004 -69.104
0.140816 0.0781855 0.00625 -74.8339
0.139046 0.0776819 0.00875 -72.7569
0.142656 0.0787038 0.00625 -75.9375
0.145053 0.0793791 0.00875 -70.9055
0.14738 0.0800251 0.00625 -83.8488
0.149162 0.080476 0.00875 -77.2752
0.149162 0.0804761 0.00625 -78.562
0.14738 0.080025 0.00875 -83.6774
0.0490523 -0.010642 0.00125001 3.9229
0.049052 -0.010642 0.00874999 2.02952
0.0490521 -0.010642 0.00375001 -3.73236
0.046909 -0.0106865 0.00374992 -3.18337
0.049052 -0.010642 0.00625001 -10.6575
0.0469091 -0.0106865 0.00875 1.91919
0.0469091 -0.0106865 0.00624997 -5.34324
0.551041 0.00119257 0 27.7017
0.559375 0.00119249 0 28.0764
0.567708 0.00119252 0 28.434
0.567708 0.0107194 0 28.94
0.576042 0.00119259 0 28.7667
0.576041 0.0107218 0 29.2604
0.576021 0.0204946 0 29.6581
0.584375 0.00119258 0 29.0831
0.584374 0.0107217 0 29.5828
0.584355 0.0205525 0 29.9239
0.592709 0.00119253 0 29.3872
0.592708 0.0107159 0 29.8997
0.592705 0.0202704 0 30.1988
0.551041 0.00119257 0.01 27.7021
0.559375 0.0011925 0.01 28.0737
0.567708 0.00119252 0.01 28.4305
0.567708 0.0107193 0.01 28.9301
0.576042 0.0011926 0.01 28.765
0.576041 0.0107217 0.01 29.2624
0.576024 0.020507 0.01 29.6495
0.584375 0.00119259 0.01 29.0845
0.584374 0.0107215 0.01 29.592
0.584355 0.0205506 0.01 29.9665
0.592709 0.00119254 0.01 29.3878
0.592708 0.0107159 0.01 29.9018
0.592705 0.0202704 0.01 30.1545
0.551041 -0.00114394 0 27.5415
0.557292 -0.00114396 0 27.8207
0.559375 -0.00114396 0 27.9129
0.565625 -0.00114396 0 28.1803
0.567708 -0.00114396 0 28.2676
0.573959 -0.00114412 0 28.5186
0.573955 0.0204681 0 29.3981
0.576041 -0.00114412 0 28.6006
0.582292 -0.00114412 0 28.839
0.582273 0.0205724 0 29.9131
0.584375 -0.00114412 0 28.9175
0.590625 -0.00114413 0 29.1459
0.590744 0.0263698 0 30.1246
0.590616 0.0203182 0 30.1225
0.592708 -0.00114414 0 29.2212
0.592779 0.026369 0 30.4058
0.557292 -0.00114383 0.01 27.8192
0.551041 -0.0011438 0.01 27.5423
0.565625 -0.00114382 0.01 28.1771
0.559375 -0.00114383 0.01 27.9111
0.573959 -0.00114387 0.01 28.5161
0.567708 -0.00114382 0.01 28.2647
0.57395 0.0204816 0.01 29.4518
0.582292 -0.00114387 0.01 28.8387
0.576041 -0.00114387 0.01 28.599
0.582274 0.0205703 0.01 29.9007
0.590625 -0.00114389 0.01 29.146
0.584375 -0.00114387 0.01 28.9179
0.590616 0.0203179 0.01 30.0986
0.590748 0.0263839 0.01 30.2931
0.592708 -0.00114389 0.01 29.2212
0.592771 0.0263899 0.01 30.1782
0.576042 0.00833589 0 29.15
0.582291 0.00833604 0 29.3913
0.582291 0.00119259 0 29.0054
0.584375 0.00833572 0 29.4716
0.590625 0.00833435 0 29.7081
0.590625 0.00119254 0 29.3126
0.592708 0.00833392 0 29.7857
0.582291 0.0011926 0.01 29.006
0.582291 0.00833598 0.01 29.3959
0.576042 0.00833583 0.01 29.1497
0.590625 0.00119255 0.01 29.3134
0.590625 0.00833432 0.01 29.7114
0.584375 0.00833567 0.01 29.477
0.592708 0.00833391 0.01 29.7868
0.573942 0.0250296 0 29.7484
0.571869 0.0248846 0 29.4363
0.578125 -0.00114366 0 28.6812
0.578125 -0.00309124 0 28.5231
0.576041 -0.00309272 0 28.444
0.582292 -0.00309272 0 28.6791
0.580209 -0.00309124 0 28.6007
0.580209 -0.00114366 0 28.7602
0.578093 0.025177 0 29.7475
0.576016 0.0251248 0 29.5252
0.582275 0.0254495 0 30.0516
0.58016 0.0253227 0 29.5108
0.586458 -0.00114367 0 28.9946
0.586458 -0.00309125 0 28.8321
0.584375 -0.00309273 0 28.7569
0.590625 -0.00309273 0 28.9812
0.588542 -0.00309125 0 28.9061
0.588542 -0.00114368 0 29.0703
0.586364 0.0254581 0 29.8101
0.584312 0.0254866 0 29.585
0.590633 0.0248887 0 30.1805
0.588415 0.0252343 0 30.3463
0.588893 0.0264646 0 30.3764
0.594791 -0.00114369 0 29.2949
0.594791 -0.00309125 0 29.1274
0.592708 -0.00309273 0 29.0555
0.596875 -0.00309125 0 29.1978
0.596875 -0.00114369 0 29.3671
0.592726 0.0247326 0 30.3557
0.551041 0.00833624 0 28.0512
0.557291 0.00833409 0 28.3456
0.557292 0.00119249 0 27.9838
0.559375 0.00833412 0 28.4465
0.565625 0.00833479 0 28.7315
0.565625 0.00119251 0 28.3473
0.567709 0.00833504 0 28.8206
0.573958 0.00833581 0 29.0703
0.573958 0.00119259 0 28.6857
0.567704 0.0179395 0 29.2738
0.573952 0.0179734 0 29.4303
0.573958 0.0107211 0 29.1828
0.576042 0.0035717 0 28.9047
0.578125 0.00357171 0 28.9856
0.578125 0.00119257 0 28.8473
0.576035 0.017984 0 29.5299
0.582284 0.0180013 0 29.7748
0.582291 0.0107224 0 29.5012
0.576024 0.0229785 0 29.6363
0.578099 0.0230199 0 29.5394
0.578119 0.0205171 0 29.5425
0.584375 0.00357169 0 29.2235
0.586458 0.00357164 0 29.3019
0.586459 0.00119255 0 29.1605
0.584367 0.0179915 0 29.8647
0.590621 0.0178984 0 30.0975
0.590625 0.0107171 0 29.8213
0.584345 0.0231664 0 29.7976
0.586414 0.0230751 0 30.0993
0.586437 0.0204932 0 30.0185
0.592708 0.0035715 0 29.5317
0.594791 0.00357147 0 29.6071
0.594792 0.0011925 0 29.4613
0.592707 0.0178763 0 30.1795
0.592696 0.0226206 0 30.3316
0.557292 0.0011925 0.01 27.9816
0.557291 0.00833407 0.01 28.3363
0.551041 0.00833618 0.01 28.0482
0.565625 0.00119251 0.01 28.3431
0.565625 0.00833475 0.01 28.723
0.559375 0.0083341 0.01 28.4368
0.573958 0.00119259 0.01 28.683
0.573958 0.00833575 0.01 29.068
0.567709 0.008335 0.01 28.813
0.573958 0.010721 0.01 29.1817
0.573952 0.0179726 0.01 29.4354
0.567704 0.0179389 0.01 29.249
0.578125 0.00119258 0.01 28.8465
0.578125 0.0035717 0.01 28.9853
0.576042 0.00357169 0.01 28.9032
0.582291 0.0107223 0.01 29.5097
0.582284 0.0180004 0.01 29.7865
0.576035 0.0179831 0.01 29.533
0.578114 0.0205298 0.01 29.6323
0.578102 0.0230407 0.01 29.6307
0.576024 0.022987 0.01 29.7344
0.586459 0.00119256 0.01 29.1621
0.586458 0.00357164 0.01 29.3043
0.584375 0.00357168 0.01 29.2259
0.590625 0.0107171 0.01 29.8272
0.590621 0.0178981 0.01 30.0977
0.584367 0.0179906 0.01 29.8819
0.586437 0.0204916 0.01 30.1101
0.586411 0.0231199 0.01 30.2671
0.584351 0.0231886 0.01 29.8774
0.594792 0.00119251 0.01 29.4613
0.594791 0.00357147 0.01 29.6068
0.592708 0.0035715 0.01 29.5326
0.592707 0.0178762 0.01 30.1612
0.5927 0.0226377 0.01 30.2345
0.553125 -0.00114371 0 27.6355
0.553125 -0.00309131 0 27.4937
0.551041 -0.0030926 0 27.4022
0.557292 -0.00309261 0 27.6761
0.555209 -0.00309131 0 27.5844
0.555209 -0.00114372 0 27.7284
0.561458 -0.00114373 0 28.0035
0.561458 -0.00309131 0 27.855
0.559375 -0.00309261 0 27.7671
0.565625 -0.00309261 0 28.0292
0.563542 -0.00309131 0 27.9416
0.563542 -0.00114372 0 28.0924
0.569791 -0.00114372 0 28.3528
0.569791 -0.00309131 0 28.1987
0.567708 -0.00309261 0 28.1156
0.573959 -0.00309273 0 28.3627
0.571875 -0.00309125 0 28.2804
0.571875 -0.00114367 0 28.4359
0.571856 0.020444 0 29.5771
0.571871 0.022848 0 29.5641
0.573942 0.0229232 0 29.5644
0.580191 0.0205658 0 29.7219
0.580192 0.0231514 0 29.5439
0.582254 0.0231967 0 30.1712
0.588524 0.0204022 0 30.1112
0.588506 0.0229095 0 30.3068
0.590606 0.0227487 0 30.2175
0.555209 -0.00114359 0.01 27.728
0.555209 -0.00309047 0.01 27.5851
0.557292 -0.00309177 0.01 27.675
0.551041 -0.00309176 0.01 27.4029
0.553125 -0.00309047 0.01 27.495
0.553125 -0.00114358 0.01 27.6359
0.563542 -0.00114359 0.01 28.0898
0.563542 -0.00309047 0.01 27.9403
0.565625 -0.00309177 0.01 28.0266
0.559375 -0.00309177 0.01 27.7658
0.561458 -0.00309047 0.01 27.8542
0.561458 -0.00114359 0.01 28.0015
0.571875 -0.00114353 0.01 28.4337
0.571875 -0.00309041 0.01 28.2789
0.573959 -0.00309178 0.01 28.3605
0.567708 -0.00309177 0.01 28.1132
0.569791 -0.00309047 0.01 28.1974
0.569791 -0.00114358 0.01 28.3504
0.573941 0.0229322 0.01 29.5059
0.571866 0.0228715 0.01 29.5254
0.57186 0.020457 0.01 29.5407
0.571866 0.0249236 0.01 29.5045
0.573942 0.0250429 0.01 29.4017
0.580209 -0.00114352 0.01 28.7599
0.580209 -0.00309041 0.01 28.6004
0.582292 -0.00309178 0.01 28.6782
0.576041 -0.00309178 0.01 28.4426
0.578125 -0.00309041 0.01 28.5228
0.578125 -0.00114352 0.01 28.6805
0.582258 0.0231803 0.01 30.0171
0.580188 0.0231388 0.01 29.6189
0.580191 0.0205637 0.01 29.7595
0.580165 0.0253423 0.01 29.6578
0.582266 0.0254528 0.01 29.729
0.576014 0.025138 0.01 29.8896
0.578092 0.0252146 0.01 29.773
0.588542 -0.00114354 0.01 29.071
0.588542 -0.00309041 0.01 28.9067
0.590625 -0.00309179 0.01 28.9808
0.584375 -0.00309178 0.01 28.7566
0.586458 -0.00309041 0.01 28.833
0.586458 -0.00114353 0.01 28.9956
0.590606 0.0227486 0.01 30.1386
0.5885 0.02293 0.01 30.3929
0.588524 0.0204013 0.01 30.1567
0.588891 0.0265043 0.01 30.2404
0.588419 0.0252804 0.01 30.3973
0.590628 0.024901 0.01 30.0002
0.584305 0.0255289 0.01 29.9971
0.586363 0.0255338 0.01 29.9156
0.596875 -0.00114355 0.01 29.3662
0.596875 -0.00309041 0.01 29.1972
0.592708 -0.00309179 0.01 29.0551
0.594791 -0.00309041 0.01 29.1275
0.594791 -0.00114354 0.01 29.2949
0.592723 0.0247675 0.01 30.2172
0.578125 0.00833593 0 29.2304
0.578125 0.00595326 0 29.1163
0.576042 0.00595322 0 29.0357
0.582291 0.00595326 0 29.2762
0.580209 0.00595328 0 29.1967
0.580208 0.00833619 0 29.311
0.580208 0.00119257 0 28.927
0.580209 0.00357172 0 29.066
0.582291 0.00357171 0 29.1452
0.586458 0.00833551 0 29.5515
0.586458 0.00595306 0 29.434
0.584375 0.00595319 0 29.3553
0.590625 0.00595272 0 29.5891
0.588541 0.00595289 0 29.512
0.588541 0.00833488 0 29.6302
0.588541 0.00119254 0 29.2372
0.588541 0.00357159 0 29.3797
0.590625 0.00357154 0 29.4562
0.594791 0.00833366 0 29.8636
0.594791 0.0059525 0 29.7419
0.592708 0.00595259 0 29.6657
0.596875 0.00595246 0 29.8174
0.596875 0.00833354 0 29.941
0.596875 0.00119249 0 29.5346
0.596875 0.00357145 0 29.6818
0.582291 0.0035717 0.01 29.1467
0.580208 0.0035717 0.01 29.0668
0.580208 0.00119258 0.01 28.927
0.580208 0.00833613 0.01 29.3145
0.580209 0.00595326 0.01 29.1987
0.582291 0.00595323 0.01 29.2792
0.576042 0.0059532 0.01 29.0346
0.578125 0.00595324 0.01 29.1168
0.578125 0.00833587 0.01 29.2321
0.590625 0.00357154 0.01 29.4575
0.588541 0.00357159 0.01 29.3816
0.588541 0.00119255 0.01 29.2383
0.588541 0.00833484 0.01 29.6351
0.588541 0.00595288 0.01 29.5156
0.590625 0.00595271 0.01 29.5919
0.584375 0.00595316 0.01 29.359
0.586458 0.00595304 0.01 29.438
0.586458 0.00833546 0.01 29.5569
0.596875 0.00357146 0.01 29.6798
0.596875 0.0011925 0.01 29.5332
0.596875 0.00833354 0.01 29.937
0.596875 0.00595246 0.01 29.8153
0.592708 0.00595258 0.01 29.6671
0.594791 0.0059525 0.01 29.7417
0.594791 0.00833365 0.01 29.862
0.101093 -0.00919501 0 0.65498
0.109385 -0.00876016 0 3.60288
0.117693 -0.00822008 0 5.48612
0.125998 -0.00774877 0 6.08072
0.134271 -0.00743849 0 6.33974
0.142702 -0.00798999 0 7.72775
0.151032 -0.00777377 0 8.00825
0.15934 -0.00740347 0 8.53441
0.16766 -0.00718291 0 8.56942
0.176018 -0.0076363 0 9.31406
0.184371 -0.00773988 0 9.88922
0.192684 -0.00761805 0 10.3087
0.201019 -0.00747914 0 10.5963
0.209366 -0.00775086 0 10.8038
0.217709 -0.00781607 0 11.481
0.226037 -0.00774777 0 11.9117
0.234365 -0.00767837 0 12.3701
0.242699 -0.00770513 0 12.7574
0.243053 0.000406878 0 13.7472
0.251052 0.000560668 0 13.148
0.1011 -0.00917048 0.01 1.43865
0.109395 -0.00873816 0.01 4.47366
0.117702 -0.00820226 0.01 6.41203
0.126007 -0.00773453 0.01 6.9424
0.134278 -0.00743684 0.01 7.25057
0.142732 -0.00800059 0.01 7.8088
0.151044 -0.00775151 0.01 8.21992
0.159347 -0.00741766 0.01 8.6261
0.167674 -0.00718652 0.01 8.88676
0.176018 -0.00763619 0.01 9.39989
0.184371 -0.00773948 0.01 10.06
0.19269 -0.00760616 0.01 10.4482
0.201025 -0.00749327 0.01 10.7686
0.209366 -0.00775008 0.01 11.0762
0.217709 -0.00781477 0.01 11.5386
0.226037 -0.0077472 0.01 11.8694
0.234366 -0.0076789 0.01 12.2553
0.242699 -0.00770661 0.01 12.6151
0.243052 0.000433816 0.01 12.897
0.251056 0.000558977 0.01 14.1255
0.0490424 -0.0108272 0 3.9229
0.0508621 -0.0108253 0 7.58593
0.0991799 -0.00934788 0 -1.532
0.107352 -0.00884906 0 2.82513
0.115657 -0.008354 0 4.03991
0.123959 -0.00786462 0 4.97434
0.132264 -0.00745458 0 5.61462
0.140649 -0.00797115 0 6.95036
0.148968 -0.00785052 0 7.98223
0.157287 -0.00749534 0 8.27513
0.165587 -0.00720717 0 9.00561
0.173912 -0.00744952 0 9.39805
0.182286 -0.00776731 0 9.77558
0.190609 -0.00762927 0 10.1625
0.198946 -0.0075188 0 10.6041
0.207644 -0.00210182 0 10.4389
0.207267 -0.00765824 0 10.8815
0.209519 -0.00221416 0 9.81536
0.215651 -0.00194939 0 11.7836
0.215621 -0.00782621 0 11.4799
0.217738 -0.00183307 0 11.4987
0.22395 -0.00146597 0 11.6741
0.22395 -0.00776587 0 11.8184
0.226043 -0.00134317 0 11.837
0.232247 -0.000976902 0 12.3921
0.232279 -0.00769406 0 12.2585
0.234318 -0.000808545 0 12.4077
0.240509 -0.00051347 0 12.7336
0.24061 -0.0076827 0 12.6958
0.242594 -0.000824798 0 13.9982
0.248967 -0.00125271 0 12.7929
0.248953 -0.00770848 0 12.8045
0.249009 0.000444598 0 13.1878
0.257303 0.000919451 0 13.6135
0.0490354 -0.0108178 0.01 2.02952
0.050926 -0.0110853 0.01 6.97979
0.0991641 -0.00931944 0.01 -3.73982
0.107341 -0.00882798 0.01 3.04268
0.115645 -0.00833542 0.01 4.43176
0.123947 -0.00784961 0.01 5.29282
0.132255 -0.00745328 0.01 5.92749
0.140646 -0.00798151 0.01 6.80809
0.148952 -0.0078277 0.01 7.75506
0.157265 -0.00751084 0.01 8.33237
0.165587 -0.00720733 0.01 8.70659
0.173903 -0.00742945 0.01 9.62766
0.182286 -0.00776661 0.01 9.83587
0.190609 -0.00763015 0.01 10.2186
0.198936 -0.00751944 0.01 10.606
0.207267 -0.00765835 0.01 11.118
0.207643 -0.00206472 0.01 11.3903
0.215622 -0.00782484 0.01 11.5069
0.215652 -0.00193307 0.01 12.6082
0.209519 -0.00217962 0.01 10.0883
0.22395 -0.00776516 0.01 11.7788
0.223954 -0.00146724 0.01 12.485
0.217737 -0.00182164 0.01 10.9806
0.232279 -0.00769441 0.01 12.1583
0.23225 -0.000975793 0.01 13.0314
0.226039 -0.00134427 0.01 11.159
0.24061 -0.0076837 0.01 12.5424
0.24051 -0.00050965 0.01 12.9967
0.234323 -0.000824955 0.01 11.4857
0.248953 -0.00770863 0.01 12.764
0.248967 -0.00127208 0.01 12.8689
0.242587 -0.000801247 0.01 13.3795
0.249004 0.000443278 0.01 12.7338
0.257297 0.000937908 0.01 12.8585
0.251039 -0.00768908 0 12.9339
0.259353 -0.0076036 0 14.2737
0.259354 0.00104857 0 13.3913
0.267648 0.00152319 0 13.5955
0.275901 0.00156015 0 14.2474
0.284378 0.00113572 0 14.0732
0.292684 0.00143044 0 14.5133
0.301005 0.00169748 0 14.8805
0.309343 0.00131469 0 15.1231
0.317702 0.00129626 0 15.7283
0.326025 0.0014339 0 15.9771
0.33435 0.00150064 0 16.2978
0.342703 0.00124079 0 16.5009
0.351037 0.00125809 0 17.2989
0.359365 0.00131653 0 17.7818
0.367699 0.00126603 0 18.1643
0.36806 0.00983151 0 18.7144
0.37604 0.0012077 0 18.4333
0.376061 0.0100133 0 18.5244
0.384372 0.00123079 0 18.8785
0.38435 0.0106087 0 18.9128
0.392704 0.00124091 0 19.3254
0.392636 0.0110897 0 19.1365
0.40104 0.00120163 0 19.7
0.401054 0.0105018 0 19.1023
0.409374 0.00120106 0 20.1778
0.409368 0.0107882 0 20.1945
0.417707 0.00121028 0 20.6558
0.417675 0.0111174 0 20.7483
0.42604 0.00120297 0 21.1133
0.425975 0.011015 0 21.8803
0.434375 0.00119364 0 21.5551
0.434364 0.0107562 0 21.8969
0.442708 0.00119964 0 22.0222
0.442687 0.0109001 0 22.2453
0.451041 0.00121353 0 22.4857
0.451017 0.0110045 0 22.7201
0.459374 0.0012282 0 22.9563
0.459371 0.0107585 0 23.0302
0.467707 0.00124459 0 23.4608
0.467704 0.0107775 0 23.7464
0.476041 0.00121869 0 23.8944
0.476032 0.0108386 0 24.2202
0.484375 0.00119596 0 24.2604
0.484364 0.010829 0 24.662
0.492708 0.00119304 0 24.6889
0.492707 0.0107364 0 24.9664
0.492737 0.0195073 0 25.0019
0.501042 0.00119307 0 25.162
0.501039 0.0107518 0 25.5168
0.501021 0.020069 0 25.7529
0.509375 0.00119327 0 25.624
0.509371 0.0107689 0 25.9857
0.509317 0.0205648 0 25.9694
0.517708 0.00119281 0 26.0653
0.517706 0.0107338 0 26.4184
0.517704 0.0201406 0 26.2261
0.526041 0.00119257 0 26.4978
0.526041 0.0107215 0 26.8908
0.526044 0.0201611 0 27.1547
0.534375 0.00119267 0 26.9178
0.534374 0.0107304 0 27.3478
0.534357 0.0204546 0 27.6306
0.542708 0.00119272 0 27.3178
0.542707 0.0107359 0 27.7615
0.542681 0.020781 0 28.0375
0.551041 0.0107221 0 28.145
0.551013 0.020336 0 28.4636
0.559375 0.0107163 0 28.5597
0.559365 0.0202704 0 29.0288
0.567699 0.0204213 0 29.3721
0.251039 -0.00768915 0.01 12.9233
0.259353 -0.00760366 0.01 14.2789
0.259362 0.00105841 0.01 14.2242
0.267646 0.00156159 0.01 14.2902
0.275918 0.00155904 0.01 14.9059
0.284378 0.001143 0.01 14.3785
0.292689 0.00143669 0.01 14.6662
0.301006 0.00169893 0.01 14.939
0.309348 0.00133215 0.01 15.0039
0.317702 0.00129567 0.01 15.7714
0.326025 0.00143218 0.01 16.0456
0.33435 0.00149862 0.01 16.3924
0.342704 0.00124073 0.01 16.4874
0.351037 0.00125771 0.01 17.2319
0.359365 0.00131575 0.01 17.6956
0.3677 0.00126553 0.01 18.1076
0.368058 0.00986982 0.01 18.4544
0.37604 0.00120756 0.01 18.4533
0.376066 0.0100695 0.01 19.2524
0.384372 0.00123045 0.01 18.8949
0.384355 0.010609 0.01 19.4752
0.392704 0.00124049 0.01 19.3275
0.392627 0.0111439 0.01 19.6868
0.401041 0.00120159 0.01 19.6991
0.401061 0.0105192 0.01 19.3917
0.409374 0.00120091 0.01 20.1896
0.409368 0.0107929 0.01 20.3726