# p  FACE_DATA 11666
# x y z  p
0.0596589 0.0485184 0.00125 -36.3137
0.101562 0.0658665 0.00124988 -62.4518
0.134326 0.0763298 0.00125007 -71.6851
0.0156349 -0.00987769 0.00124999 -28.8495
0.00986925 -0.00870838 0.00875 -49.3524
0.015635 -0.00987629 0.00874999 -29.4908
0.0241069 -0.0106137 0.00124999 -19.9342
0.0176922 -0.0101479 0.00874997 -39.4331
0.0241084 -0.0106006 0.00875 -18.5754
0.00763978 -0.00781489 0.00875 -25.6427
0.00249986 0.007756 0.00124998 72.1759
0.00249976 0.00775583 0.00875 71.8238
0.0100541 0.0171346 0.00125 30.1319
0.0100541 0.0171346 0.00875 29.8068
0.0346937 0.0353866 0.00125 -14.9448
0.0346936 0.0353866 0.00875 -15.2206
0.0515461 0.0446016 0.00125 -35.6881
0.0515461 0.0446016 0.00875 -35.873
0.0596591 0.0485182 0.00875 -36.4202
0.0739278 0.0550046 0.00124997 -47.0598
0.0739295 0.0549989 0.00875 -48.1239
0.0761697 0.0559647 0.00125002 -45.4692
0.0761716 0.055959 0.00875 -43.7847
0.0992795 0.0650143 0.00125006 -57.99
0.0992798 0.0650141 0.00875 -58.1102
0.124167 0.0734248 0.0012499 -78.2549
0.124168 0.0734247 0.00875 -78.4385
0.126 0.0739553 0.0012501 -79.1699
0.126001 0.0739544 0.00875 -79.3479
0.00348497 -0.00540105 0.00375 -0.917486
0.00348498 -0.00540103 0.00125 -11.5021
0.00390561 0.00991142 0.00125001 64.7991
0.00390554 0.00991136 0.00375001 80.0564
0.0123385 0.0192647 0.00125 24.4608
0.0123385 0.0192647 0.00375 29.7993
0.0285313 0.0316828 0.00375 -18.9376
0.0285313 0.0316828 0.00125 -17.6877
0.0451676 0.0412112 0.00375 -24.8404
0.0618131 0.0495539 0.00374999 -38.3125
0.0596589 0.0485185 0.00375001 -36.5697
0.0783681 0.0569126 0.00125 -49.683
0.0783681 0.0569126 0.00374999 -50.1699
0.0867428 0.0603561 0.00375001 -60.07
0.101562 0.0658665 0.00375 -63.0973
0.103292 0.0664919 0.00124992 -66.9642
0.103292 0.066492 0.00374999 -67.8645
0.111447 0.0692183 0.00375004 -66.9038
0.134325 0.0763333 0.00374992 -72.9373
0.136722 0.0770123 0.00124995 -67.5526
0.136721 0.0770159 0.00375005 -71.0983
0.145051 0.0793848 0.00375008 -74.7245
0.0156347 -0.00987844 0.00375 -36.4637
0.0136076 -0.00949862 0.00125 -31.097
0.0136076 -0.00949862 0.00375 -39.1737
0.0176912 -0.0101618 0.00374995 -48.0543
0.0197529 -0.0103145 0.00125003 -30.4221
0.0197524 -0.0103197 0.00375004 -39.8699
0.0241068 -0.0106201 0.00374998 -26.9696
0.0217146 -0.0104413 0.00125002 -22.6881
0.0217143 -0.0104492 0.00375006 -30.7545
0.0282211 -0.0108018 0.00375 -29.1789
0.0302103 -0.0108156 0.00375 -22.9063
0.0076396 -0.0078153 0.00375001 -27.8086
0.00547024 -0.00679722 0.00125 -43.2424
0.00143952 -0.00309457 0.00125002 36.6753
0.00249975 0.00775596 0.00374998 90.843
0.0058448 0.0124572 0.00375 62.2541
0.0079031 0.0148477 0.00375 55.3082
0.0100541 0.0171346 0.00375 37.1219
0.0141149 0.0208497 0.00374999 28.3374
0.0201896 0.0257898 0.00125 5.60186
0.0326383 0.0341513 0.00375 -11.5251
0.0346936 0.0353866 0.00375 -15.2602
0.0367466 0.0366202 0.00125 -18.8495
0.0367466 0.0366202 0.00375 -19.6929
0.0515461 0.0446016 0.00374999 -35.9524
0.0531428 0.0453811 0.00125 -38.0023
0.0639772 0.0505932 0.00375 -40.9088
0.0700375 0.053339 0.00125 -44.0546
0.0739264 0.0550072 0.00374994 -47.655
0.0722766 0.0543039 0.00125 -45.1985
0.0761684 0.0559673 0.00375005 -47.1841
0.0805723 0.0578565 0.00125 -51.9376
0.0805723 0.0578565 0.00375 -52.6628
0.0930067 0.0626838 0.00125 -54.8973
0.0952866 0.0635344 0.00125 -57.0712
0.099279 0.0650161 0.00375 -59.3103
0.0969659 0.0641545 0.00125 -58.5703
0.105094 0.0670986 0.0012501 -68.4168
0.105092 0.0671034 0.0037499 -69.3874
0.113773 0.0699913 0.00374998 -64.6868
0.120117 0.072101 0.00374998 -69.0152
0.120118 0.0720993 0.00125 -66.3974
0.124167 0.0734249 0.00375 -79.9995
0.12242 0.0728681 0.00125 -71.6176
0.125998 0.0739606 0.00374987 -79.7582
0.128392 0.0746367 0.00125 -66.8884
0.139046 0.0776819 0.00375 -74.964
0.0156348 -0.00987736 0.00625 -36.8426
0.0136075 -0.00949862 0.00875 -31.6466
0.0136075 -0.00949862 0.00625 -39.4961
0.0176916 -0.0101555 0.00624994 -48.6155
0.0197534 -0.0103035 0.00875 -29.7294
0.0197528 -0.0103122 0.00625 -39.3049
0.0241076 -0.0106114 0.00625002 -26.3004
0.0217161 -0.0104253 0.00874999 -23.7469
0.0217152 -0.0104383 0.00625004 -31.481
0.0282212 -0.0108018 0.00624999 -29.4686
0.0302103 -0.0108155 0.00625 -23.0645
0.00348497 -0.00540105 0.00625 -1.40624
0.00348498 -0.00540103 0.00875 -12.1755
0.00763959 -0.00781529 0.00625 -28.1342
0.00547019 -0.00679721 0.00875 -43.8168
0.00249971 0.0077559 0.00624999 90.5095
0.00390549 0.00991128 0.00625 79.7529
0.00584477 0.0124572 0.00625 62.0026
0.00790308 0.0148476 0.00875 44.1395
0.0100541 0.0171346 0.00625001 36.9055
0.0123385 0.0192647 0.00624999 29.5773
0.0141149 0.0208497 0.00625001 28.0797
0.0158688 0.0224099 0.00874999 16.6349
0.0182596 0.0243548 0.00874999 1.90293
0.0201895 0.0257898 0.00875 5.22869
0.0285313 0.0316828 0.00625 -19.0702
0.0285313 0.0316829 0.00875 -17.9997
0.0326383 0.0341513 0.00875 -11.3865
0.0346936 0.0353866 0.00625 -15.4169
0.0367466 0.0366202 0.00875 -19.0963
0.0367466 0.0366202 0.00625 -19.8199
0.0409383 0.038949 0.00625 -23.7578
0.0451676 0.0412112 0.00625 -24.9531
0.0451676 0.0412112 0.00875 -24.0981
0.0515461 0.0446016 0.00625 -36.038
0.0531429 0.0453804 0.00875 -38.259
0.0553392 0.0464351 0.00875 -31.5159
0.0618131 0.0495539 0.00624999 -38.4137
0.059659 0.0485184 0.00625 -36.6327
0.0639771 0.0505932 0.00625 -41.005
0.0739276 0.0550035 0.00624998 -48.2895
0.0722765 0.0543039 0.00875 -45.5338
0.0761697 0.0559636 0.00625003 -46.4308
0.0867429 0.060356 0.00625 -60.0862
0.0930069 0.0626832 0.00875001 -54.7961
0.0952867 0.0635344 0.00875 -57.266
0.0992791 0.065016 0.00625 -59.3796
0.096966 0.0641543 0.00875 -58.8009
0.107436 0.0678759 0.00625005 -60.6229
0.111447 0.0692181 0.00624994 -67.3238
0.113773 0.0699911 0.00625004 -64.6545
0.120117 0.0721009 0.00625003 -69.0442
0.124167 0.0734248 0.00625009 -80.0914
0.122419 0.0728681 0.00875 -71.7592
0.125999 0.0739601 0.00624999 -79.8347
0.128392 0.074636 0.00875 -66.7902
0.128391 0.0746415 0.00624997 -69.899
0.139047 0.0776819 0.00625 -75.3684
0.145051 0.0793845 0.00625001 -74.6537
0.00986926 -0.00870838 0.00124999 -48.8631
0.0076398 -0.00781489 0.00125 -25.1555
0.0176917 -0.0101574 0.00125007 -38.5753
0.000200385 0.00101878 0.00124999 89.8713
0.0265126 0.0304203 0.00125 -14.1931
0.0409383 0.038949 0.00125002 -22.4716
0.0430512 0.0400793 0.00124999 -21.9796
0.0844473 0.0594811 0.00125001 -63.0794
0.109733 0.0686517 0.00125 -63.6176
0.142658 0.0786991 0.00125 -75.774
0.0264126 -0.0107599 0.00124996 -24.5179
0.0264128 -0.0107599 0.00875 -25.2664
0.00030057 -0.000910135 0.00124996 67.664
0.000300479 -0.00090986 0.00875 66.984
0.00143944 -0.00309431 0.00875 35.9057
0.000200372 0.00101871 0.00875 89.3393
0.0245666 0.0290269 0.00125 -2.92567
0.0220896 0.0271946 0.00125 4.69393
0.0245669 0.0290265 0.00875 -3.16759
0.0220899 0.0271942 0.00875 4.32507
0.0265126 0.0304203 0.00875 -14.5222
0.0409384 0.0389488 0.00875 -22.6358
0.0430512 0.0400793 0.00875 -22.2054
0.0574973 0.0474804 0.00125 -35.0177
0.055339 0.0464357 0.00125 -31.5114
0.0574975 0.0474802 0.00875 -35.243
0.082793 0.0588075 0.00124999 -55.247
0.082793 0.0588075 0.00875 -55.3454
0.0844474 0.0594808 0.00875 -63.2152
0.107436 0.0678775 0.00124998 -58.4011
0.101562 0.0658665 0.00875 -62.8399
0.107439 0.067868 0.00875 -54.9389
0.109734 0.0686517 0.00875 -64.9695
0.132483 0.0758129 0.00125 -71.5873
0.132483 0.0758129 0.00875 -71.9549
0.134327 0.0763232 0.00875 -73.0926
0.140815 0.0781855 0.00125 -73.0015
0.140816 0.0781855 0.00875 -73.5323
0.142658 0.0786984 0.00875 -75.9922
0.00986924 -0.00870838 0.00375 -59.1791
0.011654 -0.00912788 0.00125001 -47.1501
0.0116539 -0.00912788 0.00374999 -58.2308
0.000200379 0.00101875 0.00374999 120.656
0.0013868 0.00543825 0.00125 86.134
0.000586819 0.00298345 0.00125 92.6329
0.000586809 0.0029834 0.00375 119.616
0.0158685 0.0224104 0.00124999 17.0064
0.0182592 0.0243553 0.00125003 2.13224
0.0158681 0.0224108 0.00375001 20.867
0.0182589 0.0243556 0.00374999 3.09086
0.0265126 0.0304203 0.00374999 -14.2096
0.0430512 0.0400793 0.00375 -22.9599
0.0409382 0.0389491 0.00375 -23.6805
0.0451676 0.0412112 0.00125 -23.8895
0.0618131 0.0495539 0.00125 -37.9316
0.0700363 0.0533415 0.00375 -45.875
0.0677828 0.0523723 0.00125 -52.9951
0.0677816 0.0523749 0.00374999 -51.8885
0.0844463 0.0594837 0.00375001 -62.6592
0.0867438 0.0603536 0.00125 -58.7181
0.109733 0.0686517 0.00375 -66.2399
0.107435 0.0678823 0.00375006 -62.4062
0.111448 0.0692157 0.00125 -64.6438
0.117778 0.0713216 0.00125 -67.1977
0.117778 0.0713233 0.00375003 -68.2338
0.142656 0.0787041 0.00374996 -76.5148
0.145053 0.0793798 0.00125 -71.6992
0.0264127 -0.0107599 0.00374998 -31.5864
0.0282212 -0.0108018 0.00125 -23.0506
0.0302103 -0.0108155 0.00125 -18.1426
0.00547002 -0.00679765 0.00374999 -44.189
0.00143948 -0.00309443 0.00375002 61.4888
0.000300522 -0.00090999 0.00374997 99.5896
0.00138673 0.00543826 0.00375 107.787
0.00584483 0.0124572 0.00125 50.7115
0.00790312 0.0148477 0.00125 44.4826
0.014115 0.0208496 0.00125 22.4811
0.0201895 0.0257898 0.00374999 7.04377
0.0220894 0.0271949 0.00375001 6.16708
0.0245664 0.0290271 0.00375 -1.69536
0.0305852 0.0329173 0.00375 -12.2669
0.0326383 0.0341513 0.00125 -11.1147
0.0305852 0.0329173 0.00125 -11.094
0.0388237 0.0378181 0.00124998 -27.0313
0.0388236 0.0378182 0.00375 -28.1502
0.0472819 0.042342 0.00375 -27.2388
0.0493989 0.0434742 0.00125 -29.6662
0.0493989 0.0434743 0.00375001 -30.1187
0.0472819 0.042342 0.00125 -26.3896
0.053141 0.0453847 0.00374996 -38.1775
0.0553372 0.0464394 0.00375002 -33.424
0.0574973 0.0474805 0.00374999 -35.1327
0.0639772 0.0505932 0.00125 -40.6274
0.0661609 0.0516418 0.00125 -44.5511
0.0661609 0.0516419 0.00375 -44.5562
0.0722765 0.0543039 0.00374998 -46.0332
0.082793 0.0588075 0.00375 -56.0423
0.0890204 0.0612055 0.00374999 -56.3879
0.0906999 0.0618265 0.00125 -56.2022
0.0906997 0.0618269 0.00375 -56.658
0.0890204 0.0612055 0.00125 -55.9459
0.0930065 0.0626842 0.00375001 -56.3682
0.0952866 0.0635343 0.00374999 -58.2625
0.0969653 0.0641562 0.00375 -59.1788
0.113774 0.0699888 0.00125 -61.8776
0.116073 0.0707587 0.00125 -65.8124
0.116073 0.0707587 0.00375 -66.9048
0.12242 0.0728681 0.00375 -73.8313
0.128391 0.0746419 0.00375006 -69.9289
0.132483 0.0758129 0.00375 -72.7287
0.130713 0.075309 0.00125 -72.2507
0.130714 0.075309 0.00375 -72.6572
0.140816 0.0781856 0.00375 -75.2486
0.139046 0.0776818 0.00125 -72.4453
0.147379 0.080025 0.00374988 -84.5238
0.149162 0.0804761 0.00125 -77.7682
0.149162 0.080476 0.00375 -79.1748
0.147379 0.0800251 0.00125 -84.2376
0.0264128 -0.0107599 0.00625001 -31.8919
0.0282212 -0.0108017 0.00875 -23.8172
0.0302103 -0.0108155 0.00875 -18.5287
0.00986925 -0.00870838 0.00625 -59.4443
0.0116539 -0.00912788 0.00875 -47.6643
0.0116539 -0.00912788 0.00625 -58.4738
0.00547 -0.00679764 0.00625 -44.601
0.00143945 -0.00309434 0.00625001 60.9136
0.000300489 -0.000909893 0.00624999 99.0165
0.000200374 0.00101872 0.00625 120.161
0.00138678 0.00543818 0.00875 85.7627
0.000586798 0.00298335 0.00875 92.1755
0.00138672 0.00543824 0.00625 107.419
0.000586801 0.00298336 0.00625 119.178
0.00390549 0.00991123 0.00875 64.4373
0.00584478 0.0124572 0.00875 50.3839
0.00790308 0.0148477 0.00624999 55.0492
0.0123384 0.0192647 0.00875 24.1048
0.0158684 0.0224104 0.00625 20.6257
0.0141149 0.0208496 0.00875 22.0986
0.0182593 0.0243552 0.00625 2.97452
0.0201895 0.0257898 0.00624999 6.82571
0.0220896 0.0271946 0.00625001 5.95501
0.0245666 0.0290269 0.00625 -1.82589
0.0265127 0.0304203 0.00625 -14.374
0.0305852 0.0329173 0.00625 -12.4221
0.0326383 0.0341513 0.00625 -11.6693
0.0305852 0.0329173 0.00875 -11.4137
0.0388238 0.0378178 0.00875 -27.2836
0.0388237 0.0378181 0.00625 -28.2648
0.0430512 0.0400793 0.00625 -23.0815
0.0472819 0.042342 0.00625 -27.3568
0.049399 0.0434743 0.00875 -29.8513
0.049399 0.0434742 0.00625 -30.2232
0.0472819 0.042342 0.00875 -26.5874
0.053141 0.0453844 0.00625 -38.2931
0.0553373 0.0464391 0.00625001 -33.4522
0.0574974 0.0474803 0.00625 -35.2475
0.0618132 0.0495539 0.00875 -38.1018
0.0639771 0.0505931 0.00875 -40.7846
0.0661609 0.0516419 0.00874999 -44.7198
0.066161 0.0516419 0.00625 -44.6562
0.0700363 0.0533413 0.00625001 -45.9663
0.0677828 0.052372 0.00875001 -53.2217
0.0677817 0.0523748 0.00624999 -51.9813
0.0700375 0.0533386 0.00875 -44.2085
0.0722764 0.0543039 0.00625 -46.2172
0.0783681 0.0569126 0.00875 -50.3076
0.0783681 0.0569126 0.00625 -50.3448
0.0805723 0.0578565 0.00875 -52.3876
0.0805723 0.0578565 0.00625 -52.8601
0.082793 0.0588075 0.00625 -56.1114
0.0844464 0.0594835 0.00624997 -62.7239
0.0867439 0.0603532 0.00875 -58.7403
0.0890205 0.0612055 0.00625 -56.464
0.0907001 0.0618259 0.00874999 -56.4371
0.0906999 0.0618264 0.00625 -56.8016
0.0890204 0.0612055 0.00875 -56.0938
0.0930067 0.0626838 0.00625 -56.2967
0.0952866 0.0635343 0.00625 -58.3501
0.0969653 0.0641562 0.00625 -59.2946
0.101562 0.0658665 0.00625 -63.3278
0.103292 0.0664918 0.00874999 -67.4348
0.103292 0.0664919 0.00625 -68.1554
0.105096 0.0670889 0.00875001 -70.3957
0.105094 0.067097 0.00624998 -70.6101
0.109733 0.0686517 0.00625 -66.7546
0.111447 0.0692154 0.00875 -65.4971
0.113773 0.0699884 0.00875 -61.7638
0.116073 0.0707587 0.00875 -65.9869
0.116073 0.0707587 0.00625 -66.9651
0.117778 0.0713215 0.00875 -67.4067
0.117778 0.0713233 0.00624996 -68.3244
0.120118 0.0720992 0.00875 -66.4485
0.12242 0.0728681 0.00625 -73.8965
0.132483 0.0758129 0.00625 -72.9483
0.130713 0.075309 0.00875 -72.6396
0.130713 0.0753091 0.00625 -72.8592
0.134326 0.0763288 0.00624998 -73.8396
0.136724 0.0770058 0.00875 -65.0955
0.136722 0.0770114 0.00625004 -69.7776
0.140816 0.0781855 0.00625 -75.5274
0.139046 0.0776819 0.00875 -73.4305
0.142656 0.0787038 0.00625 -76.6316
0.145053 0.0793791 0.00875 -71.5498
0.14738 0.0800251 0.00625 -84.5775
0.149162 0.080476 0.00875 -77.9425
0.149162 0.0804761 0.00625 -79.2522
0.14738 0.080025 0.00875 -84.388
0.0490523 -0.010642 0.00125001 4.45769
0.049052 -0.010642 0.00874999 2.5672
0.0490521 -0.010642 0.00375001 -3.1442
0.046909 -0.0106865 0.00374992 -2.61991
0.049052 -0.010642 0.00625001 -10.0418
0.0469091 -0.0106865 0.00875 2.42663
0.0469091 -0.0106865 0.00624997 -4.77241
0.551041 0.00119257 0 27.7314
0.559375 0.00119249 0 28.1036
0.567708 0.00119252 0 28.459
0.567708 0.0107194 0 28.963
0.576042 0.00119259 0 28.7894
0.576041 0.0107218 0 29.2812
0.576021 0.0204946 0 29.6777
0.584375 0.00119258 0 29.1038
0.584374 0.0107217 0 29.6015
0.584355 0.0205525 0 29.9414
0.592709 0.00119253 0 29.4058
0.592708 0.0107159 0 29.9165
0.592705 0.0202704 0 30.2145
0.551041 0.00119257 0.01 27.732
0.559375 0.0011925 0.01 28.1009
0.567708 0.00119252 0.01 28.4554
0.567708 0.0107193 0.01 28.9533
0.576042 0.0011926 0.01 28.7879
0.576041 0.0107217 0.01 29.2834
0.576024 0.020507 0.01 29.6695
0.584375 0.00119259 0.01 29.1051
0.584374 0.0107215 0.01 29.6108
0.584355 0.0205506 0.01 29.9843
0.592709 0.00119254 0.01 29.4066
0.592708 0.0107159 0.01 29.9188
0.592705 0.0202704 0.01 30.1705
0.551041 -0.00114394 0 27.5717
0.557292 -0.00114396 0 27.8488
0.559375 -0.00114396 0 27.9405
0.565625 -0.00114396 0 28.2062
0.567708 -0.00114396 0 28.2929
0.573959 -0.00114412 0 28.5422
0.573955 0.0204681 0 29.4189
0.576041 -0.00114412 0 28.6237
0.582292 -0.00114412 0 28.8605
0.582273 0.0205724 0 29.9312
0.584375 -0.00114412 0 28.9385
0.590625 -0.00114413 0 29.1655
0.590744 0.0263698 0 30.1399
0.590616 0.0203182 0 30.1386
0.592708 -0.00114414 0 29.2403
0.592779 0.026369 0 30.4215
0.557292 -0.00114383 0.01 27.8473
0.551041 -0.0011438 0.01 27.5725
0.565625 -0.00114382 0.01 28.2031
0.559375 -0.00114383 0.01 27.9386
0.573959 -0.00114387 0.01 28.5399
0.567708 -0.00114382 0.01 28.2901
0.57395 0.0204816 0.01 29.4725
0.582292 -0.00114387 0.01 28.8603
0.576041 -0.00114387 0.01 28.6223
0.582274 0.0205703 0.01 29.9191
0.590625 -0.00114389 0.01 29.1656
0.584375 -0.00114387 0.01 28.939
0.590616 0.0203179 0.01 30.115
0.590748 0.0263839 0.01 30.3092
0.592708 -0.00114389 0.01 29.2404
0.592771 0.0263899 0.01 30.1934
0.576042 0.00833589 0 29.1713
0.582291 0.00833604 0 29.4108
0.582291 0.00119259 0 29.0264
0.584375 0.00833572 0 29.4907
0.590625 0.00833435 0 29.7257
0.590625 0.00119254 0 29.3316
0.592708 0.00833392 0 29.8029
0.582291 0.0011926 0.01 29.0271
0.582291 0.00833598 0.01 29.4156
0.576042 0.00833583 0.01 29.1712
0.590625 0.00119255 0.01 29.3326
0.590625 0.00833432 0.01 29.7292
0.584375 0.00833567 0.01 29.4962
0.592708 0.00833391 0.01 29.8041
0.573942 0.0250296 0 29.7691
0.571869 0.0248846 0 29.4569
0.578125 -0.00114366 0 28.7036
0.578125 -0.00309124 0 28.546
0.576041 -0.00309272 0 28.4676
0.582292 -0.00309272 0 28.701
0.580209 -0.00309124 0 28.623
0.580209 -0.00114366 0 28.7821
0.578093 0.025177 0 29.7671
0.576016 0.0251248 0 29.5449
0.582275 0.0254495 0 30.07
0.58016 0.0253227 0 29.5294
0.586458 -0.00114367 0 29.015
0.586458 -0.00309125 0 28.853
0.584375 -0.00309273 0 28.7783
0.590625 -0.00309273 0 29.0011
0.588542 -0.00309125 0 28.9264
0.588542 -0.00114368 0 29.0902
0.586364 0.0254581 0 29.8266
0.584312 0.0254866 0 29.6019
0.590633 0.0248887 0 30.1963
0.588415 0.0252343 0 30.3624
0.588893 0.0264646 0 30.3924
0.594791 -0.00114369 0 29.3134
0.594791 -0.00309125 0 29.1463
0.592708 -0.00309273 0 29.075
0.596875 -0.00309125 0 29.2162
0.596875 -0.00114369 0 29.3851
0.592726 0.0247326 0 30.3714
0.551041 0.00833624 0 28.0795
0.557291 0.00833409 0 28.3719
0.557292 0.00119249 0 28.0114
0.559375 0.00833412 0 28.4722
0.565625 0.00833479 0 28.7555
0.565625 0.00119251 0 28.3726
0.567709 0.00833504 0 28.844
0.573958 0.00833581 0 29.0921
0.573958 0.00119259 0 28.7088
0.567704 0.0179395 0 29.2959
0.573952 0.0179734 0 29.451
0.573958 0.0107211 0 29.2042
0.576042 0.0035717 0 28.9269
0.578125 0.00357171 0 29.0072
0.578125 0.00119257 0 28.8693
0.576035 0.017984 0 29.5499
0.582284 0.0180013 0 29.793
0.582291 0.0107224 0 29.5203
0.576024 0.0229785 0 29.6561
0.578099 0.0230199 0 29.5589
0.578119 0.0205171 0 29.5622
0.584375 0.00357169 0 29.2436
0.586458 0.00357164 0 29.3214
0.586459 0.00119255 0 29.1806
0.584367 0.0179915 0 29.8824
0.590621 0.0178984 0 30.1138
0.590625 0.0107171 0 29.8385
0.584345 0.0231664 0 29.8151
0.586414 0.0230751 0 30.1161
0.586437 0.0204932 0 30.0353
0.592708 0.0035715 0 29.5498
0.594791 0.00357147 0 29.6247
0.594792 0.0011925 0 29.4794
0.592707 0.0178763 0 30.1954
0.592696 0.0226206 0 30.3471
0.557292 0.0011925 0.01 28.0092
0.557291 0.00833407 0.01 28.3628
0.551041 0.00833618 0.01 28.0767
0.565625 0.00119251 0.01 28.3686
0.565625 0.00833475 0.01 28.7471
0.559375 0.0083341 0.01 28.4626
0.573958 0.00119259 0.01 28.7064
0.573958 0.00833575 0.01 29.0899
0.567709 0.008335 0.01 28.8366
0.573958 0.010721 0.01 29.2032
0.573952 0.0179726 0.01 29.4561
0.567704 0.0179389 0.01 29.2713
0.578125 0.00119258 0.01 28.8687
0.578125 0.0035717 0.01 29.007
0.576042 0.00357169 0.01 28.9255
0.582291 0.0107223 0.01 29.529
0.582284 0.0180004 0.01 29.805
0.576035 0.0179831 0.01 29.5531
0.578114 0.0205298 0.01 29.6521
0.578102 0.0230407 0.01 29.6503
0.576024 0.022987 0.01 29.7545
0.586459 0.00119256 0.01 29.1822
0.586458 0.00357164 0.01 29.3239
0.584375 0.00357168 0.01 29.246
0.590625 0.0107171 0.01 29.8446
0.590621 0.0178981 0.01 30.1143
0.584367 0.0179906 0.01 29.8998
0.586437 0.0204916 0.01 30.1273
0.586411 0.0231199 0.01 30.2844
0.584351 0.0231886 0.01 29.8954
0.594792 0.00119251 0.01 29.4795
0.594791 0.00357147 0.01 29.6245
0.592708 0.0035715 0.01 29.5508
0.592707 0.0178762 0.01 30.1774
0.5927 0.0226377 0.01 30.2503
0.553125 -0.00114371 0 27.6648
0.553125 -0.00309131 0 27.5234
0.551041 -0.0030926 0 27.4327
0.557292 -0.00309261 0 27.7045
0.555209 -0.00309131 0 27.6133
0.555209 -0.00114372 0 27.7569
0.561458 -0.00114373 0 28.0304
0.561458 -0.00309131 0 27.8823
0.559375 -0.00309261 0 27.795
0.565625 -0.00309261 0 28.0554
0.563542 -0.00309131 0 27.9683
0.563542 -0.00114372 0 28.1187
0.569791 -0.00114372 0 28.3775
0.569791 -0.00309131 0 28.2238
0.567708 -0.00309261 0 28.1413
0.573959 -0.00309273 0 28.3868
0.571875 -0.00309125 0 28.3049
0.571875 -0.00114367 0 28.46
0.571856 0.020444 0 29.5979
0.571871 0.022848 0 29.5849
0.573942 0.0229232 0 29.5851
0.580191 0.0205658 0 29.7408
0.580192 0.0231514 0 29.5627
0.582254 0.0231967 0 30.1894
0.588524 0.0204022 0 30.1276
0.588506 0.0229095 0 30.3232
0.590606 0.0227487 0 30.2335
0.555209 -0.00114359 0.01 27.7566
0.555209 -0.00309047 0.01 27.614
0.557292 -0.00309177 0.01 27.7035
0.551041 -0.00309176 0.01 27.4336
0.553125 -0.00309047 0.01 27.5248
0.553125 -0.00114358 0.01 27.6653
0.563542 -0.00114359 0.01 28.1162
0.563542 -0.00309047 0.01 27.9671
0.565625 -0.00309177 0.01 28.0529
0.559375 -0.00309177 0.01 27.7937
0.561458 -0.00309047 0.01 27.8815
0.561458 -0.00114359 0.01 28.0285
0.571875 -0.00114353 0.01 28.4579
0.571875 -0.00309041 0.01 28.3035
0.573959 -0.00309178 0.01 28.3847
0.567708 -0.00309177 0.01 28.139
0.569791 -0.00309047 0.01 28.2225
0.569791 -0.00114358 0.01 28.3752
0.573941 0.0229322 0.01 29.5265
0.571866 0.0228715 0.01 29.5463
0.57186 0.020457 0.01 29.5617
0.571866 0.0249236 0.01 29.5255
0.573942 0.0250429 0.01 29.4218
0.580209 -0.00114352 0.01 28.7819
0.580209 -0.00309041 0.01 28.6229
0.582292 -0.00309178 0.01 28.7002
0.576041 -0.00309178 0.01 28.4662
0.578125 -0.00309041 0.01 28.5458
0.578125 -0.00114352 0.01 28.7031
0.582258 0.0231803 0.01 30.0355
0.580188 0.0231388 0.01 29.6379
0.580191 0.0205637 0.01 29.7787
0.580165 0.0253423 0.01 29.6768
0.582266 0.0254528 0.01 29.747
0.576014 0.025138 0.01 29.9102
0.578092 0.0252146 0.01 29.7927
0.588542 -0.00114354 0.01 29.0911
0.588542 -0.00309041 0.01 28.9272
0.590625 -0.00309179 0.01 29.0008
0.584375 -0.00309178 0.01 28.7781
0.586458 -0.00309041 0.01 28.8539
0.586458 -0.00114353 0.01 29.0161
0.590606 0.0227486 0.01 30.1548
0.5885 0.02293 0.01 30.4096
0.588524 0.0204013 0.01 30.1734
0.588891 0.0265043 0.01 30.2564
0.588419 0.0252804 0.01 30.4141
0.590628 0.024901 0.01 30.0159
0.584305 0.0255289 0.01 30.0154
0.586363 0.0255338 0.01 29.9327
0.596875 -0.00114355 0.01 29.3844
0.596875 -0.00309041 0.01 29.2158
0.592708 -0.00309179 0.01 29.0747
0.594791 -0.00309041 0.01 29.1465
0.594791 -0.00114354 0.01 29.3135
0.592723 0.0247675 0.01 30.2327
0.578125 0.00833593 0 29.251
0.578125 0.00595326 0 29.1374
0.576042 0.00595322 0 29.0574
0.582291 0.00595326 0 29.2961
0.580209 0.00595328 0 29.2171
0.580208 0.00833619 0 29.331
0.580208 0.00119257 0 28.9483
0.580209 0.00357172 0 29.0869
0.582291 0.00357171 0 29.1656
0.586458 0.00833551 0 29.5701
0.586458 0.00595306 0 29.4531
0.584375 0.00595319 0 29.3748
0.590625 0.00595272 0 29.6072
0.588541 0.00595289 0 29.5305
0.588541 0.00833488 0 29.6483
0.588541 0.00119254 0 29.2566
0.588541 0.00357159 0 29.3986
0.590625 0.00357154 0 29.4747
0.594791 0.00833366 0 29.8803
0.594791 0.0059525 0 29.759
0.592708 0.00595259 0 29.6833
0.596875 0.00595246 0 29.8339
0.596875 0.00833354 0 29.9571
0.596875 0.00119249 0 29.552
0.596875 0.00357145 0 29.6987
0.582291 0.0035717 0.01 29.1672
0.580208 0.0035717 0.01 29.0877
0.580208 0.00119258 0.01 28.9485
0.580208 0.00833613 0.01 29.3346
0.580209 0.00595326 0.01 29.2192
0.582291 0.00595323 0.01 29.2993
0.576042 0.0059532 0.01 29.0565
0.578125 0.00595324 0.01 29.1381
0.578125 0.00833587 0.01 29.2529
0.590625 0.00357154 0.01 29.4762
0.588541 0.00357159 0.01 29.4007
0.588541 0.00119255 0.01 29.2579
0.588541 0.00833484 0.01 29.6533
0.588541 0.00595288 0.01 29.5343
0.590625 0.00595271 0.01 29.6101
0.584375 0.00595316 0.01 29.3787
0.586458 0.00595304 0.01 29.4571
0.586458 0.00833546 0.01 29.5756
0.596875 0.00357146 0.01 29.697
0.596875 0.0011925 0.01 29.5509
0.596875 0.00833354 0.01 29.9534
0.596875 0.00595246 0.01 29.832
0.592708 0.00595258 0.01 29.6849
0.594791 0.0059525 0.01 29.7589
0.594791 0.00833365 0.01 29.8788
0.101093 -0.00919501 0 1.00394
0.109385 -0.00876016 0 3.93265
0.117693 -0.00822008 0 5.79742
0.125998 -0.00774877 0 6.37571
0.134271 -0.00743849 0 6.62399
0.142702 -0.00798999 0 7.99856
0.151032 -0.00777377 0 8.2682
0.15934 -0.00740347 0 8.78565
0.16766 -0.00718291 0 8.80922
0.176018 -0.0076363 0 9.54504
0.184371 -0.00773988 0 10.1113
0.192684 -0.00761805 0 10.5223
0.201019 -0.00747914 0 10.8029
0.209366 -0.00775086 0 11.0035
0.217709 -0.00781607 0 11.6731
0.226037 -0.00774777 0 12.0969
0.234365 -0.00767837 0 12.5486
0.242699 -0.00770513 0 12.9296
0.243053 0.000406878 0 13.9158
0.251052 0.000560668 0 13.3144
0.1011 -0.00917048 0.01 1.78672
0.109395 -0.00873816 0.01 4.80453
0.117702 -0.00820226 0.01 6.72301
0.126007 -0.00773453 0.01 7.23724
0.134278 -0.00743684 0.01 7.53333
0.142732 -0.00800059 0.01 8.08077
0.151044 -0.00775151 0.01 8.4802
0.159347 -0.00741766 0.01 8.87582
0.167674 -0.00718652 0.01 9.1264
0.176018 -0.00763619 0.01 9.62993
0.184371 -0.00773948 0.01 10.2813
0.19269 -0.00760616 0.01 10.6612
0.201025 -0.00749327 0.01 10.9742
0.209366 -0.00775008 0.01 11.2748
0.217709 -0.00781477 0.01 11.7303
0.226037 -0.0077472 0.01 12.0546
0.234366 -0.0076789 0.01 12.4342
0.242699 -0.00770661 0.01 12.7877
0.243052 0.000433816 0.01 13.0684
0.251056 0.000558977 0.01 14.2901
0.0490424 -0.0108272 0 4.45769
0.0508621 -0.0108253 0 8.11954
0.0991799 -0.00934788 0 -1.17472
0.107352 -0.00884906 0 3.15997
0.115657 -0.008354 0 4.35935
0.123959 -0.00786462 0 5.27607
0.132264 -0.00745458 0 5.90419
0.140649 -0.00797115 0 7.22873
0.148968 -0.00785052 0 8.2451
0.157287 -0.00749534 0 8.52982
0.165587 -0.00720717 0 9.24625
0.173912 -0.00744952 0 9.63068
0.182286 -0.00776731 0 9.99995
0.190609 -0.00762927 0 10.3785
0.198946 -0.0075188 0 10.8121
0.207644 -0.00210182 0 10.6392
0.207267 -0.00765824 0 11.0822
0.209519 -0.00221416 0 10.0164
0.215651 -0.00194939 0 11.9762
0.215621 -0.00782621 0 11.6734
0.217738 -0.00183307 0 11.6909
0.22395 -0.00146597 0 11.861
0.22395 -0.00776587 0 12.0052
0.226043 -0.00134317 0 12.0223
0.232247 -0.000976902 0 12.572
0.232279 -0.00769406 0 12.4386
0.234318 -0.000808545 0 12.5867
0.240509 -0.00051347 0 12.9072
0.24061 -0.0076827 0 12.8693
0.242594 -0.000824798 0 14.1676
0.248967 -0.00125271 0 12.9616
0.248953 -0.00770848 0 12.9728
0.249009 0.000444598 0 13.3558
0.257303 0.000919451 0 13.7751
0.0490354 -0.0108178 0.01 2.5672
0.050926 -0.0110853 0.01 7.53515
0.0991641 -0.00931944 0.01 -3.37645
0.107341 -0.00882798 0.01 3.38011
0.115645 -0.00833542 0.01 4.75085
0.123947 -0.00784961 0.01 5.59458
0.132255 -0.00745328 0.01 6.21582
0.140646 -0.00798151 0.01 7.08627
0.148952 -0.0078277 0.01 8.01965
0.157265 -0.00751084 0.01 8.58627
0.165587 -0.00720733 0.01 8.94897
0.173903 -0.00742945 0.01 9.85934
0.182286 -0.00776661 0.01 10.0599
0.190609 -0.00763015 0.01 10.4342
0.198936 -0.00751944 0.01 10.8138
0.207267 -0.00765835 0.01 11.3178
0.207643 -0.00206472 0.01 11.5884
0.215622 -0.00782484 0.01 11.7001
0.215652 -0.00193307 0.01 12.7995
0.209519 -0.00217962 0.01 10.2875
0.22395 -0.00776516 0.01 11.9657
0.223954 -0.00146724 0.01 12.6707
0.217737 -0.00182164 0.01 11.1732
0.232279 -0.00769441 0.01 12.3388
0.23225 -0.000975793 0.01 13.2104
0.226039 -0.00134427 0.01 11.3455
0.24061 -0.0076837 0.01 12.7166
0.24051 -0.00050965 0.01 13.1703
0.234323 -0.000824955 0.01 11.6663
0.248953 -0.00770863 0.01 12.9325
0.248967 -0.00127208 0.01 13.0371
0.242587 -0.000801247 0.01 13.5508
0.249004 0.000443278 0.01 12.902
0.257297 0.000937908 0.01 13.021
0.251039 -0.00768908 0 13.1004
0.259353 -0.0076036 0 14.427
0.259354 0.00104857 0 13.5518
0.267648 0.00152319 0 13.7522
0.275901 0.00156015 0 14.3989
0.284378 0.00113572 0 14.2213
0.292684 0.00143044 0 14.6564
0.301005 0.00169748 0 15.0191
0.309343 0.00131469 0 15.2575
0.317702 0.00129626 0 15.8573
0.326025 0.0014339 0 16.1021
0.33435 0.00150064 0 16.4186
0.342703 0.00124079 0 16.6179
0.351037 0.00125809 0 17.4107
0.359365 0.00131653 0 17.8892
0.367699 0.00126603 0 18.2677
0.36806 0.00983151 0 18.8158
0.37604 0.0012077 0 18.5332
0.376061 0.0100133 0 18.6237
0.384372 0.00123079 0 18.9744
0.38435 0.0106087 0 19.0084
0.392704 0.00124091 0 19.4174
0.392636 0.0110897 0 19.2285
0.40104 0.00120163 0 19.7884
0.401054 0.0105018 0 19.1915
0.409374 0.00120106 0 20.2622
0.409368 0.0107882 0 20.2787
0.417707 0.00121028 0 20.7365
0.417675 0.0111174 0 20.8285
0.42604 0.00120297 0 21.1903
0.425975 0.011015 0 21.9552
0.434375 0.00119364 0 21.6285
0.434364 0.0107562 0 21.9689
0.442708 0.00119964 0 22.092
0.442687 0.0109001 0 22.3142
0.451041 0.00121353 0 22.5519
0.451017 0.0110045 0 22.7853
0.459374 0.0012282 0 23.019
0.459371 0.0107585 0 23.0923
0.467707 0.00124459 0 23.5201
0.467704 0.0107775 0 23.8045
0.476041 0.00121869 0 23.9504
0.476032 0.0108386 0 24.2749
0.484375 0.00119596 0 24.3131
0.484364 0.010829 0 24.7134
0.492708 0.00119304 0 24.7385
0.492707 0.0107364 0 25.0149
0.492737 0.0195073 0 25.0498
0.501042 0.00119307 0 25.2085
0.501039 0.0107518 0 25.5619
0.501021 0.020069 0 25.7974
0.509375 0.00119327 0 25.6674
0.509371 0.0107689 0 26.0278
0.509317 0.0205648 0 26.0112
0.517708 0.00119281 0 26.1058
0.517706 0.0107338 0 26.4575
0.517704 0.0201406 0 26.2648
0.526041 0.00119257 0 26.5354
0.526041 0.0107215 0 26.9269
0.526044 0.0201611 0 27.1899
0.534375 0.00119267 0 26.9527
0.534374 0.0107304 0 27.381
0.534357 0.0204546 0 27.6631
0.542708 0.00119272 0 27.3501
0.542707 0.0107359 0 27.792
0.542681 0.020781 0 28.0671
0.551041 0.0107221 0 28.1729
0.551013 0.020336 0 28.4904
0.559375 0.0107163 0 28.5851
0.559365 0.0202704 0 29.053
0.567699 0.0204213 0 29.394
0.251039 -0.00768915 0.01 13.0899
0.259353 -0.00760366 0.01 14.4322
0.259362 0.00105841 0.01 14.383
0.267646 0.00156159 0.01 14.4456
0.275918 0.00155904 0.01 15.0558
0.284378 0.001143 0.01 14.5257
0.292689 0.00143669 0.01 14.8089
0.301006 0.00169893 0.01 15.0773
0.309348 0.00133215 0.01 15.1383
0.317702 0.00129567 0.01 15.9002
0.326025 0.00143218 0.01 16.1702
0.33435 0.00149862 0.01 16.5128
0.342704 0.00124073 0.01 16.6043
0.351037 0.00125771 0.01 17.3438
0.359365 0.00131575 0.01 17.8032
0.3677 0.00126553 0.01 18.2111
0.368058 0.00986982 0.01 18.5568
0.37604 0.00120756 0.01 18.5531
0.376066 0.0100695 0.01 19.3505
0.384372 0.00123045 0.01 18.9906
0.384355 0.010609 0.01 19.5698
0.392704 0.00124049 0.01 19.4194
0.392627 0.0111439 0.01 19.7781
0.401041 0.00120159 0.01 19.7874
0.401061 0.0105192 0.01 19.4802
0.409374 0.00120091 0.01 20.2739