/*--------------------------------*- C++ -*----------------------------------*\
| =========                 |                                                 |
| \\      /  F ield         | OpenFOAM: The Open Source CFD Toolbox           |
|  \\    /   O peration     | Version:  2506                                  |
|   \\  /    A nd           | Website:  www.openfoam.com                      |
|    \\/     M anipulation  |                                                 |
\*---------------------------------------------------------------------------*/
FoamFile
{
    version     2.0;
    format      ascii;
    arch        "LSB;label=32;scalar=64";
    class       volScalarField;
    location    "1000";
    object      epsilon;
}
// * * * * * * * * * * * * * * * * * * * * * * * * * * * * * * * * * * * * * //

dimensions      [0 2 -3 0 0 0 0];

internalField   nonuniform List<scalar> 
131949
(
0.427376
0.492067
0.494247
0.487068
0.480358
0.474538
0.469357
0.464769
0.46069
0.457007
0.453635
0.450511
0.44759
0.444834
0.442216
0.439715
0.437313
0.434998
0.432757
0.430582
0.428466
0.426403
0.424386
0.422412
0.420477
0.418578
0.416712
0.414876
0.413068
0.411287
0.40953
0.407797
0.406086
0.404395
0.402724
0.401072
0.399438
0.39782
0.39622
0.394635
0.393065
0.391509
0.389968
0.38844
0.386925
0.385424
0.383934
0.382457
0.380991
0.379537
0.378094
0.376661
0.37524
0.373829
0.372428
0.371036
0.369655
0.368283
0.366921
0.365568
0.364223
0.362888
0.361562
0.360244
0.358934
0.357633
0.35634
0.355056
0.353779
0.35251
0.351249
0.349996
0.34875
0.347511
0.34628
0.345057
0.34384
0.342631
0.341428
0.340233
0.339044
0.337863
0.336688
0.335519
0.334358
0.333203
0.332054
0.330912
0.329776
0.328646
0.327523
0.326405
0.325294
0.324189
0.32309
0.321997
0.320909
0.319828
0.318752
0.317682
0.316618
0.315559
0.314506
0.313458
0.312416
0.31138
0.310349
0.309323
0.308302
0.307287
0.306277
0.305273
0.304273
0.303279
0.302289
0.301305
0.300326
0.299351
0.298382
0.297417
0.296458
0.295503
0.294553
0.293608
0.292667
0.291731
0.2908
0.289873
0.288951
0.288034
0.287121
0.286213
0.285309
0.284409
0.283514
0.282624
0.281737
0.280855
0.279978
0.279104
0.278235
0.27737
0.276509
0.275653
0.2748
0.273952
0.273107
0.272267
0.271431
0.270598
0.26977
0.268946
0.268125
0.267309
0.266496
0.265687
0.264882
0.264081
0.263283
0.26249
0.2617
0.260913
0.260131
0.259352
0.258577
0.257805
0.257037
0.256273
0.255512
0.254754
0.254
0.25325
0.252503
0.25176
0.25102
0.250283
0.24955
0.24882
0.248093
0.24737
0.24665
0.245934
0.24522
0.24451
0.243803
0.2431
0.242399
0.241702
0.241008
0.240317
0.239629
0.238944
0.238262
0.237584
0.236908
0.236236
0.235566
0.2349
0.234236
0.233576
0.232918
0.232263
0.231611
0.230963
0.230317
0.229673
0.229033
0.228396
0.227761
0.227129
0.2265
0.225874
0.22525
0.224629
0.224011
0.223396
0.222783
0.222173
0.221565
0.220961
0.220358
0.219759
0.219162
0.218568
0.217976
0.217387
0.2168
0.216216
0.215634
0.215055
0.214478
0.213904
0.213332
0.212763
0.212196
0.211632
0.21107
0.21051
0.209953
0.209398
0.208845
0.208295
0.207747
0.207201
0.206658
0.206117
0.205578
0.205041
0.204507
0.203975
0.203445
0.202917
0.202392
0.201869
0.201347
0.200828
0.200312
0.199797
0.199284
0.198774
0.198265
0.197759
0.197255
0.196753
0.196253
0.195755
0.195259
0.194765
0.194273
0.193783
0.193294
0.192808
0.192324
0.191842
0.191362
0.190884
0.190407
0.189933
0.18946
0.18899
0.188521
0.188054
0.187589
0.187126
0.186664
0.186205
0.185747
0.185291
0.184837
0.184384
0.183934
0.183485
0.183038
0.182593
0.182149
0.181707
0.181267
0.180829
0.180392
0.179957
0.179524
0.179092
0.178662
0.178234
0.177807
0.177382
0.176958
0.176537
0.176116
0.175698
0.175281
0.174865
0.174452
0.174039
0.173629
0.17322
0.172812
0.172406
0.172001
0.171598
0.171197
0.170797
0.170398
0.170001
0.169606
0.169212
0.168819
0.168428
0.168038
0.16765
0.167263
0.166878
0.166494
0.166112
0.16573
0.165351
0.164972
0.164595
0.16422
0.163846
0.163473
0.163101
0.162731
0.162362
0.161995
0.161629
0.161264
0.1609
0.160538
0.160177
0.159818
0.159459
0.159102
0.158747
0.158392
0.158039
0.157687
0.157336
0.156987
0.156639
0.156292
0.155946
0.155601
0.155258
0.154916
0.154575
0.154235
0.153897
0.153559
0.153223
0.152888
0.152554
0.152221
0.15189
0.151559
0.15123
0.150902
0.150575
0.150249
0.149924
0.1496
0.149278
0.148956
0.148636
0.148317
0.147999
0.147681
0.147365
0.14705
0.146737
0.146424
0.146112
0.145801
0.145491
0.145183
0.144875
0.144569
0.144267
0.143976
0.143738
0.270384
0.330571
0.37502
0.402595
0.419761
0.430198
0.436093
0.439156
0.440497
0.440759
0.440326
0.439444
0.438266
0.436893
0.43539
0.4338
0.432152
0.430468
0.428761
0.427042
0.425318
0.423593
0.421873
0.420158
0.418452
0.416755
0.415069
0.413394
0.411731
0.41008
0.408441
0.406814
0.4052
0.403597
0.402007
0.400428
0.398862
0.397307
0.395763
0.394231
0.39271
0.3912
0.3897
0.388212
0.386733
0.385265
0.383807
0.382359
0.380921
0.379492
0.378073
0.376663
0.375263
0.373871
0.372489
0.371115
0.36975
0.368394
0.367046
0.365706
0.364375
0.363052
0.361737
0.36043
0.359131
0.357839
0.356556
0.355279
0.354011
0.35275
0.351496
0.350249
0.34901
0.347778
0.346552
0.345334
0.344123
0.342918
0.341721
0.34053
0.339345
0.338168
0.336996
0.335832
0.334673
0.333521
0.332375
0.331236
0.330102
0.328975
0.327854
0.326739
0.32563
0.324527
0.323429
0.322338
0.321252
0.320172
0.319097
0.318029
0.316965
0.315908
0.314856
0.313809
0.312768
0.311732
0.310702
0.309676
0.308657
0.307642
0.306632
0.305628
0.304629
0.303634
0.302645
0.301661
0.300682
0.299708
0.298738
0.297774
0.296814
0.295859
0.294909
0.293964
0.293023
0.292087
0.291155
0.290228
0.289306
0.288388
0.287475
0.286566
0.285662
0.284762
0.283867
0.282975
0.282089
0.281206
0.280328
0.279454
0.278584
0.277718
0.276857
0.276
0.275147
0.274297
0.273452
0.272611
0.271774
0.270941
0.270112
0.269287
0.268466
0.267649
0.266835
0.266026
0.26522
0.264418
0.26362
0.262825
0.262035
0.261247
0.260464
0.259684
0.258908
0.258136
0.257367
0.256602
0.25584
0.255082
0.254327
0.253576
0.252828
0.252084
0.251343
0.250605
0.249871
0.24914
0.248413
0.247689
0.246968
0.246251
0.245537
0.244826
0.244118
0.243413
0.242712
0.242014
0.241319
0.240627
0.239938
0.239253
0.23857
0.237891
0.237214
0.236541
0.23587
0.235203
0.234539
0.233877
0.233219
0.232563
0.23191
0.231261
0.230614
0.22997
0.229329
0.22869
0.228055
0.227422
0.226792
0.226165
0.22554
0.224919
0.2243
0.223684
0.22307
0.222459
0.221851
0.221245
0.220642
0.220042
0.219444
0.218849
0.218256
0.217666
0.217079
0.216494
0.215911
0.215331
0.214754
0.214179
0.213606
0.213036
0.212469
0.211903
0.21134
0.21078
0.210222
0.209666
0.209113
0.208562
0.208013
0.207467
0.206922
0.206381
0.205841
0.205304
0.204769
0.204236
0.203705
0.203177
0.20265
0.202126
0.201604
0.201085
0.200567
0.200052
0.199538
0.199027
0.198518
0.198011
0.197506
0.197003
0.196502
0.196004
0.195507
0.195012
0.194519
0.194029
0.19354
0.193053
0.192568
0.192086
0.191605
0.191126
0.190649
0.190173
0.1897
0.189229
0.188759
0.188292
0.187826
0.187362
0.1869
0.18644
0.185981
0.185525
0.18507
0.184617
0.184166
0.183716
0.183269
0.182823
0.182378
0.181936
0.181495
0.181056
0.180619
0.180183
0.179749
0.179317
0.178886
0.178457
0.17803
0.177604
0.17718
0.176758
0.176337
0.175918
0.1755
0.175084
0.17467
0.174257
0.173845
0.173436
0.173028
0.172621
0.172216
0.171812
0.17141
0.171009
0.17061
0.170213
0.169817
0.169422
0.169029
0.168637
0.168247
0.167858
0.167471
0.167085
0.1667
0.166317
0.165936
0.165555
0.165176
0.164799
0.164423
0.164048
0.163675
0.163303
0.162932
0.162563
0.162195
0.161828
0.161463
0.161099
0.160736
0.160374
0.160014
0.159655
0.159298
0.158942
0.158587
0.158233
0.15788
0.157529
0.157179
0.15683
0.156483
0.156137
0.155791
0.155448
0.155105
0.154764
0.154423
0.154084
0.153746
0.15341
0.153074
0.15274
0.152406
0.152074
0.151744
0.151414
0.151085
0.150758
0.150431
0.150106
0.149782
0.149459
0.149137
0.148816
0.148496
0.148178
0.14786
0.147543
0.147228
0.146914
0.1466
0.146288
0.145977
0.145667
0.145358
0.14505
0.144743
0.14444
0.144149
0.143911
0.228178
0.258029
0.288821
0.31625
0.339563
0.358691
0.373778
0.385404
0.394261
0.400941
0.405918
0.409573
0.412202
0.414033
0.415238
0.415949
0.416269
0.416276
0.416032
0.415584
0.414971
0.414222
0.413362
0.412411
0.411385
0.410295
0.409153
0.407968
0.406748
0.405497
0.404222
0.402926
0.401614
0.400288
0.398951
0.397606
0.396254
0.394897
0.393536
0.392173
0.390809
0.389445
0.388081
0.386719
0.385358
0.384
0.382645
0.381294
0.379946
0.378602
0.377262
0.375927
0.374597
0.373272
0.371952
0.370637
0.369327
0.368024
0.366725
0.365433
0.364146
0.362865
0.36159
0.36032
0.359057
0.357799
0.356548
0.355302
0.354063
0.352829
0.351602
0.35038
0.349165
0.347955
0.346752
0.345554
0.344362
0.343176
0.341996
0.340822
0.339654
0.338492
0.337335
0.336185
0.33504
0.3339
0.332767
0.331639
0.330516
0.3294
0.328289
0.327183
0.326083
0.324989
0.3239
0.322816
0.321738
0.320665
0.319598
0.318536
0.317479
0.316427
0.315381
0.31434
0.313304
0.312273
0.311247
0.310226
0.30921
0.3082
0.307194
0.306193
0.305197
0.304206
0.30322
0.302239
0.301263
0.300291
0.299324
0.298362
0.297404
0.296451
0.295503
0.294559
0.29362
0.292686
0.291756
0.29083
0.289909
0.288992
0.28808
0.287172
0.286269
0.28537
0.284475
0.283584
0.282698
0.281816
0.280938
0.280064
0.279195
0.278329
0.277468
0.276611
0.275758
0.274908
0.274063
0.273222
0.272385
0.271552
0.270722
0.269897
0.269075
0.268258
0.267444
0.266634
0.265827
0.265025
0.264226
0.263431
0.262639
0.261852
0.261067
0.260287
0.25951
0.258737
0.257967
0.257201
0.256438
0.255679
0.254924
0.254171
0.253423
0.252677
0.251935
0.251197
0.250462
0.24973
0.249001
0.248276
0.247554
0.246836
0.246121
0.245408
0.2447
0.243994
0.243291
0.242592
0.241896
0.241203
0.240513
0.239826
0.239142
0.238461
0.237784
0.237109
0.236438
0.235769
0.235103
0.234441
0.233781
0.233124
0.23247
0.231819
0.231171
0.230525
0.229883
0.229243
0.228606
0.227972
0.227341
0.226713
0.226087
0.225464
0.224844
0.224226
0.223611
0.222999
0.222389
0.221783
0.221178
0.220577
0.219977
0.219381
0.218787
0.218196
0.217607
0.217021
0.216437
0.215855
0.215277
0.2147
0.214126
0.213555
0.212986
0.212419
0.211855
0.211293
0.210734
0.210177
0.209622
0.20907
0.20852
0.207972
0.207427
0.206884
0.206343
0.205804
0.205268
0.204734
0.204202
0.203672
0.203144
0.202619
0.202096
0.201575
0.201056
0.200539
0.200025
0.199512
0.199002
0.198494
0.197987
0.197483
0.196981
0.196481
0.195983
0.195487
0.194993
0.194501
0.194011
0.193523
0.193037
0.192553
0.192071
0.191591
0.191112
0.190636
0.190162
0.189689
0.189218
0.18875
0.188283
0.187817
0.187354
0.186893
0.186433
0.185975
0.185519
0.185065
0.184613
0.184162
0.183713
0.183266
0.182821
0.182377
0.181935
0.181495
0.181056
0.18062
0.180184
0.179751
0.179319
0.178889
0.178461
0.178034
0.177609
0.177185
0.176763
0.176343
0.175924
0.175507
0.175091
0.174678
0.174265
0.173854
0.173445
0.173037
0.172631
0.172226
0.171823
0.171422
0.171021
0.170623
0.170226
0.16983
0.169436
0.169043
0.168652
0.168262
0.167873
0.167486
0.167101
0.166717
0.166334
0.165953
0.165573
0.165194
0.164817
0.164441
0.164067
0.163694
0.163322
0.162952
0.162583
0.162215
0.161849
0.161484
0.16112
0.160757
0.160396
0.160036
0.159678
0.159321
0.158965
0.15861
0.158257
0.157904
0.157553
0.157204
0.156855
0.156508
0.156162
0.155817
0.155474
0.155131
0.15479
0.15445
0.154111
0.153773
0.153437
0.153102
0.152768
0.152435
0.152103
0.151772
0.151443
0.151114
0.150787
0.150461
0.150136
0.149812
0.149489
0.149167
0.148846
0.148527
0.148208
0.147891
0.147575
0.14726
0.146945
0.146632
0.14632
0.146009
0.145699
0.14539
0.145083
0.144779
0.144488
0.144248
0.214641
0.227086
0.24239
0.259352
0.276822
0.293837
0.309629
0.323787
0.336201
0.346914
0.356048
0.363768
0.370248
0.375654
0.380138
0.383835
0.38686
0.389312
0.391274
0.392819
0.394005
0.394884
0.395498
0.395883
0.396071
0.396087
0.395954
0.395691
0.395314
0.394837
0.394273
0.393632
0.392923
0.392155
0.391335
0.390467
0.389559
0.388614
0.387638
0.386633
0.385603
0.38455
0.383478
0.382389
0.381285
0.380168
0.379039
0.3779
0.376752
0.375597
0.374435
0.373268
0.372096
0.370921
0.369743
0.368562
0.36738
0.366197
0.365013
0.363829
0.362646
0.361463
0.360281
0.359101
0.357922
0.356745
0.355571
0.354399
0.353229
0.352062
0.350899
0.349738
0.348581
0.347427
0.346276
0.34513
0.343987
0.342848
0.341712
0.340581
0.339454
0.338331
0.337212
0.336097
0.334987
0.333881
0.332779
0.331682
0.330589
0.329501
0.328417
0.327338
0.326263
0.325192
0.324126
0.323065
0.322008
0.320956
0.319908
0.318865
0.317826
0.316792
0.315763
0.314738
0.313718
0.312702
0.31169
0.310684
0.309681
0.308683
0.30769
0.306701
0.305717
0.304737
0.303761
0.30279
0.301824
0.300861
0.299904
0.29895
0.298001
0.297056
0.296115
0.295179
0.294247
0.29332
0.292396
0.291477
0.290562
0.289651
0.288744
0.287842
0.286944
0.286049
0.285159
0.284273
0.283391
0.282513
0.281639
0.280769
0.279903
0.279041
0.278183
0.277329
0.276479
0.275633
0.27479
0.273952
0.273117
0.272286
0.271459
0.270635
0.269816
0.269
0.268187
0.267379
0.266574
0.265773
0.264975
0.264182
0.263391
0.262605
0.261821
0.261042
0.260266
0.259493
0.258724
0.257959
0.257197
0.256438
0.255683
0.254931
0.254182
0.253437
0.252695
0.251957
0.251222
0.25049
0.249761
0.249036
0.248314
0.247595
0.24688
0.246167
0.245458
0.244752
0.244049
0.243349
0.242653
0.241959
0.241269
0.240581
0.239897
0.239215
0.238537
0.237862
0.237189
0.23652
0.235853
0.23519
0.234529
0.233871
0.233217
0.232565
0.231916
0.231269
0.230626
0.229985
0.229347
0.228712
0.22808
0.22745
0.226824
0.226199
0.225578
0.224959
0.224343
0.22373
0.223119
0.222511
0.221906
0.221303
0.220702
0.220105
0.219509
0.218917
0.218327
0.217739
0.217154
0.216572
0.215991
0.215414
0.214839
0.214266
0.213696
0.213128
0.212562
0.211999
0.211438
0.21088
0.210324
0.20977
0.209218
0.208669
0.208122
0.207578
0.207036
0.206496
0.205958
0.205422
0.204889
0.204358
0.203829
0.203302
0.202778
0.202255
0.201735
0.201217
0.200701
0.200187
0.199675
0.199165
0.198658
0.198152
0.197648
0.197147
0.196647
0.19615
0.195655
0.195161
0.19467
0.19418
0.193693
0.193207
0.192724
0.192242
0.191762
0.191284
0.190808
0.190334
0.189862
0.189392
0.188924
0.188457
0.187992
0.187529
0.187068
0.186609
0.186152
0.185696
0.185242
0.18479
0.18434
0.183891
0.183444
0.182999
0.182556
0.182114
0.181674
0.181236
0.180799
0.180365
0.179931
0.1795
0.17907
0.178642
0.178215
0.17779
0.177367
0.176945
0.176525
0.176106
0.17569
0.175274
0.17486
0.174448
0.174037
0.173628
0.173221
0.172815
0.17241
0.172007
0.171605
0.171205
0.170807
0.17041
0.170014
0.16962
0.169227
0.168836
0.168446
0.168058
0.167671
0.167286
0.166902
0.166519
0.166138
0.165758
0.165379
0.165002
0.164626
0.164252
0.163879
0.163507
0.163137
0.162768
0.1624
0.162034
0.161669
0.161305
0.160943
0.160582
0.160222
0.159863
0.159506
0.15915
0.158795
0.158442
0.15809
0.157739
0.157389
0.15704
0.156693
0.156347
0.156002
0.155658
0.155316
0.154975
0.154635
0.154296
0.153958
0.153622
0.153286
0.152952
0.152619
0.152287
0.151956
0.151627
0.151298
0.150971
0.150645
0.150319
0.149995
0.149672
0.149351
0.14903
0.14871
0.148392
0.148074
0.147758
0.147442
0.147128
0.146815
0.146503
0.146191
0.145882
0.145573
0.145268
0.144975
0.144735
0.210104
0.215481
0.2225
0.231134
0.241112
0.252032
0.26341
0.274801
0.285865
0.296367
0.306154
0.315146
0.323319
0.330681
0.337269
0.343129
0.348318
0.352891
0.356907
0.360417
0.363473
0.366121
0.368402
0.370355
0.372013
0.373407
0.374563
0.375507
0.376259
0.376838
0.377263
0.377548
0.377707
0.377752
0.377693
0.377541
0.377305
0.376992
0.37661
0.376164
0.37566
0.375104
0.374501
0.373854
0.373168
0.372445
0.37169
0.370905
0.370092
0.369255
0.368394
0.367514
0.366614
0.365697
0.364765
0.363818
0.362859
0.361888
0.360907
0.359916
0.358917
0.35791
0.356896
0.355876
0.354851
0.353821
0.352787
0.351749
0.350708
0.349665
0.348619
0.347572
0.346523
0.345474
0.344424
0.343373
0.342322
0.341272
0.340222
0.339173
0.338125
0.337077
0.336032
0.334987
0.333945
0.332904
0.331865
0.330828
0.329794
0.328761
0.327732
0.326704
0.32568
0.324658
0.323639
0.322623
0.32161
0.3206
0.319593
0.318589
0.317589
0.316591
0.315597
0.314607
0.313619
0.312635
0.311655
0.310678
0.309705
0.308735
0.307769
0.306806
0.305847
0.304891
0.30394
0.302992
0.302047
0.301106
0.300169
0.299236
0.298306
0.29738
0.296458
0.295539
0.294624
0.293713
0.292806
0.291902
0.291002
0.290106
0.289213
0.288324
0.287439
0.286557
0.28568
0.284805
0.283935
0.283068
0.282205
0.281346
0.28049
0.279638
0.278789
0.277944
0.277103
0.276265
0.275431
0.2746
0.273773
0.27295
0.27213
0.271313
0.270501
0.269691
0.268885
0.268083
0.267284
0.266489
0.265697
0.264908
0.264123
0.263341
0.262563
0.261788
0.261016
0.260248
0.259483
0.258721
0.257963
0.257208
0.256456
0.255708
0.254962
0.25422
0.253482
0.252746
0.252014
0.251285
0.250559
0.249836
0.249116
0.248399
0.247686
0.246976
0.246268
0.245564
0.244863
0.244165
0.24347
0.242778
0.242088
0.241402
0.240719
0.240039
0.239362
0.238687
0.238016
0.237347
0.236682
0.236019
0.235359
0.234702
0.234048
0.233396
0.232748
0.232102
0.231459
0.230818
0.230181
0.229546
0.228914
0.228284
0.227658
0.227034
0.226412
0.225793
0.225177
0.224564
0.223953
0.223345
0.222739
0.222136
0.221535
0.220937
0.220341
0.219748
0.219158
0.21857
0.217984
0.217401
0.216821
0.216242
0.215667
0.215093
0.214522
0.213954
0.213387
0.212823
0.212262
0.211703
0.211146
0.210591
0.210039
0.209489
0.208941
0.208396
0.207853
0.207312
0.206773
0.206237
0.205702
0.20517
0.20464
0.204112
0.203587
0.203063
0.202542
0.202023
0.201506
0.200991
0.200478
0.199967
0.199458
0.198951
0.198447
0.197944
0.197443
0.196945
0.196448
0.195953
0.195461
0.19497
0.194481
0.193995
0.19351
0.193027
0.192546
0.192067
0.19159
0.191114
0.190641
0.190169
0.189699
0.189232
0.188766
0.188301
0.187839
0.187378
0.18692
0.186463
0.186007
0.185554
0.185102
0.184652
0.184204
0.183758
0.183313
0.18287
0.182429
0.181989
0.181551
0.181115
0.18068
0.180247
0.179816
0.179386
0.178958
0.178532
0.178107
0.177684
0.177263
0.176843
0.176424
0.176007
0.175592
0.175179
0.174766
0.174356
0.173947
0.173539
0.173133
0.172729
0.172326
0.171924
0.171524
0.171126
0.170729
0.170333
0.169939
0.169547
0.169155
0.168766
0.168377
0.16799
0.167605
0.167221
0.166838
0.166457
0.166077
0.165698
0.165321
0.164945
0.164571
0.164198
0.163826
0.163456
0.163087
0.162719
0.162352
0.161987
0.161623
0.161261
0.1609
0.16054
0.160181
0.159824
0.159467
0.159113
0.158759
0.158406
0.158055
0.157705
0.157357
0.157009
0.156663
0.156318
0.155974
0.155631
0.15529
0.15495
0.154611
0.154273
0.153936
0.1536
0.153266
0.152933
0.152601
0.15227
0.15194
0.151611
0.151283
0.150957
0.150631
0.150307
0.149984
0.149662
0.149341
0.149021
0.148702
0.148384
0.148068
0.147752
0.147437
0.147124
0.146811
0.1465
0.14619
0.145884
0.14559
0.145349
0.208358
0.2109
0.214191
0.218358
0.223454
0.229447
0.236207
0.243547
0.251262
0.259159
0.267066
0.274837
0.282363
0.289561
0.296377
0.302778
0.308746
0.314279
0.319382
0.32407
0.32836
0.332271
0.335826
0.339046
0.341955
0.344574
0.346923
0.349023
0.350891
0.352547
0.354005
0.355281
0.356389
0.357343
0.358152
0.35883
0.359386
0.359829
0.360167
0.360409
0.360562
0.360633
0.360627
0.36055
0.360408
0.360206
0.359946
0.359635
0.359275
0.358871
0.358424
0.357939
0.357418
0.356864
0.356278
0.355664
0.355023
0.354357
0.353668
0.352957
0.352227
0.351478
0.350711
0.349929
0.349132
0.348322
0.347499
0.346664
0.345818
0.344963
0.344098
0.343224
0.342343
0.341455
0.34056
0.339659
0.338753
0.337842
0.336926
0.336007
0.335084
0.334157
0.333228
0.332296
0.331362
0.330426
0.329489
0.32855
0.32761
0.32667
0.325729
0.324788
0.323846
0.322905
0.321963
0.321023
0.320082
0.319143
0.318204
0.317267
0.31633
0.315395
0.314462
0.313529
0.312599
0.31167
0.310743
0.309817
0.308894
0.307973
0.307054
0.306137
0.305222
0.30431
0.3034
0.302493
0.301588
0.300685
0.299785
0.298888
0.297993
0.297102
0.296212
0.295326
0.294442
0.293562
0.292684
0.291809
0.290936
0.290067
0.289201
0.288338
0.287477
0.28662
0.285766
0.284915
0.284066
0.283221
0.282379
0.28154
0.280704
0.279872
0.279042
0.278215
0.277392
0.276571
0.275754
0.27494
0.274129
0.273321
0.272516
0.271714
0.270916
0.27012
0.269328
0.268538
0.267752
0.266969
0.266189
0.265412
0.264639
0.263868
0.263101
0.262336
0.261575
0.260816
0.260061
0.259309
0.25856
0.257814
0.25707
0.25633
0.255593
0.254859
0.254128
0.2534
0.252675
0.251953
0.251234
0.250518
0.249805
0.249094
0.248387
0.247683
0.246981
0.246282
0.245587
0.244894
0.244204
0.243517
0.242833
0.242151
0.241473
0.240797
0.240124
0.239454
0.238786
0.238122
0.23746
0.236801
0.236144
0.23549
0.23484
0.234191
0.233546
0.232903
0.232263
0.231625
0.23099
0.230358
0.229728
0.229101
0.228477
0.227855
0.227236
0.226619
0.226005
0.225394
0.224785
0.224178
0.223574
0.222972
0.222373
0.221777
0.221183
0.220591
0.220002
0.219415
0.218831
0.218249
0.217669
0.217092
0.216517
0.215945
0.215374
0.214807
0.214241
0.213678
0.213117
0.212559
0.212002
0.211448
0.210896
0.210347
0.2098
0.209254
0.208712
0.208171
0.207632
0.207096
0.206562
0.20603
0.2055
0.204972
0.204447
0.203923
0.203402
0.202882
0.202365
0.20185
0.201337
0.200826
0.200317
0.19981
0.199305
0.198802
0.198301
0.197802
0.197305
0.19681
0.196317
0.195826
0.195336
0.194849
0.194364
0.19388
0.193399
0.192919
0.192441
0.191965
0.191491
0.191019
0.190548
0.19008
0.189613
0.189148
0.188685
0.188224
0.187764
0.187306
0.18685
0.186396
0.185943
0.185493
0.185044
0.184596
0.184151
0.183707
0.183264
0.182824
0.182385
0.181948
0.181512
0.181078
0.180646
0.180215
0.179786
0.179359
0.178933
0.178509
0.178086
0.177665
0.177246
0.176828
0.176412
0.175997
0.175584
0.175172
0.174762
0.174353
0.173946
0.173541
0.173136
0.172734
0.172333
0.171933
0.171535
0.171138
0.170743
0.170349
0.169957
0.169566
0.169176
0.168788
0.168401
0.168016
0.167632
0.167249
0.166868
0.166488
0.16611
0.165733
0.165357
0.164983
0.16461
0.164238
0.163868
0.163499
0.163131
0.162765
0.162399
0.162036
0.161673
0.161312
0.160952
0.160593
0.160236
0.15988
0.159525
0.159171
0.158818
0.158467
0.158117
0.157768
0.157421
0.157075
0.156729
0.156385
0.156043
0.155701
0.155361
0.155021
0.154683
0.154346
0.154011
0.153676
0.153343
0.15301
0.152679
0.152349
0.15202
0.151692
0.151365
0.15104
0.150715
0.150392
0.15007
0.149748
0.149428
0.149109
0.148791
0.148474
0.148158
0.147843
0.14753
0.147217
0.146906
0.146598
0.146303
0.146061
0.207572
0.208875
0.210512
0.212559
0.215095
0.218178
0.221822
0.225997
0.230647
0.235691
0.241041
0.246602
0.252284
0.258004
0.26369
0.269282
0.27473
0.279998
0.285055
0.289883
0.294469
0.298805
0.302888
0.306721
0.310306
0.313651
0.316762
0.319649
0.322321
0.324787
0.327058
0.329143
0.331053
0.332796
0.334383
0.335821
0.337121
0.338289
0.339333
0.340262
0.341081
0.341798
0.342418
0.342948
0.343392
0.343756
0.344045
0.344263
0.344414
0.344504
0.344534
0.344509
0.344432
0.344306
0.344135
0.34392
0.343664
0.34337
0.34304
0.342676
0.342281
0.341855
0.341401
0.340921
0.340415
0.339886
0.339335
0.338763
0.338171
0.337561
0.336934
0.33629
0.335631
0.334958
0.334271
0.333572
0.33286
0.332138
0.331405
0.330662
0.32991
0.329149
0.328381
0.327605
0.326822
0.326033
0.325237
0.324436
0.32363
0.322819
0.322004
0.321184
0.320361
0.319534
0.318705
0.317872
0.317037
0.3162
0.31536
0.314519
0.313676
0.312832
0.311987
0.311141
0.310294
0.309446
0.308598
0.307749
0.306901
0.306052
0.305204
0.304356
0.303508
0.302661
0.301815
0.300969
0.300124
0.29928
0.298437
0.297595
0.296754
0.295915
0.295077
0.294241
0.293406
0.292572
0.291741
0.29091
0.290082
0.289256
0.288431
0.287608
0.286788
0.285969
0.285152
0.284338
0.283525
0.282715
0.281907
0.281101
0.280297
0.279496
0.278697
0.277901
0.277106
0.276315
0.275525
0.274738
0.273954
0.273172
0.272392
0.271615
0.27084
0.270068
0.269299
0.268532
0.267768
0.267006
0.266247
0.26549
0.264737
0.263985
0.263237
0.262491
0.261747
0.261007
0.260268
0.259533
0.2588
0.25807
0.257343
0.256618
0.255896
0.255176
0.254459
0.253745
0.253034
0.252325
0.251619
0.250915
0.250214
0.249516
0.24882
0.248127
0.247437
0.246749
0.246064
0.245382
0.244702
0.244025
0.24335
0.242678
0.242009
0.241342
0.240678
0.240017
0.239358
0.238701
0.238047
0.237396
0.236747
0.236101
0.235457
0.234816
0.234178
0.233542
0.232908
0.232277
0.231648
0.231022
0.230398
0.229777
0.229159
0.228542
0.227928
0.227317
0.226708
0.226102
0.225497
0.224896
0.224296
0.223699
0.223105
0.222512
0.221922
0.221335
0.22075
0.220167
0.219586
0.219008
0.218432
0.217858
0.217287
0.216717
0.21615
0.215586
0.215023
0.214463
0.213905
0.213349
0.212796
0.212244
0.211695
0.211148
0.210603
0.21006
0.209519
0.208981
0.208445
0.20791
0.207378
0.206848
0.20632
0.205794
0.20527
0.204748
0.204229
0.203711
0.203195
0.202681
0.20217
0.20166
0.201152
0.200646
0.200143
0.199641
0.199141
0.198643
0.198147
0.197653
0.197161
0.19667
0.196182
0.195695
0.195211
0.194728
0.194247
0.193768
0.193291
0.192815
0.192342
0.19187
0.1914
0.190932
0.190466
0.190001
0.189538
0.189077
0.188618
0.18816
0.187704
0.18725
0.186798
0.186347
0.185898
0.185451
0.185005
0.184561
0.184119
0.183678
0.183239
0.182802
0.182366
0.181932
0.1815
0.181069
0.18064
0.180212
0.179786
0.179362
0.178939
0.178517
0.178098
0.177679
0.177263
0.176847
0.176434
0.176022
0.175611
0.175202
0.174794
0.174388
0.173984
0.17358
0.173179
0.172778
0.17238
0.171982
0.171586
0.171192
0.170799
0.170407
0.170017
0.169628
0.169241
0.168855
0.16847
0.168087
0.167705
0.167324
0.166945
0.166567
0.166191
0.165816
0.165442
0.165069
0.164698
0.164328
0.16396
0.163592
0.163226
0.162862
0.162498
0.162136
0.161775
0.161416
0.161057
0.1607
0.160344
0.15999
0.159636
0.159284
0.158933
0.158583
0.158235
0.157887
0.157541
0.157196
0.156852
0.15651
0.156168
0.155828
0.155489
0.155151
0.154814
0.154479
0.154144
0.153811
0.153479
0.153147
0.152817
0.152488
0.152161
0.151834
0.151508
0.151184
0.15086
0.150538
0.150217
0.149897
0.149578
0.149259
0.148942
0.148627
0.148312
0.147998
0.147686
0.147377
0.147081
0.146837
0.207161
0.207854
0.208705
0.209746
0.211023
0.212585
0.21447
0.216696
0.21927
0.222181
0.225407
0.228913
0.232657
0.236594
0.240676
0.244857
0.249093
0.253344
0.257574
0.261753
0.265855
0.269858
0.273744
0.2775
0.281115
0.284584
0.287899
0.29106
0.294064
0.296912
0.299607
0.30215
0.304544
0.306794
0.308904
0.310878
0.312721
0.314438
0.316034
0.317514
0.318883
0.320145
0.321305
0.322368
0.323338
0.32422
0.325018
0.325735
0.326376
0.326945
0.327443
0.327876
0.328247
0.328558
0.328812
0.329012
0.329161
0.329261
0.329315
0.329325
0.329293
0.329221
0.329111
0.328966
0.328786
0.328574
0.328331
0.328059
0.327759
0.327432
0.32708
0.326704
0.326306
0.325886
0.325446
0.324986
0.324507
0.324011
0.323499
0.32297
0.322427
0.321869
0.321298
0.320714
0.320118
0.31951
0.318892
0.318263
0.317624
0.316977
0.31632
0.315655
0.314982
0.314302
0.313615
0.312922
0.312222
0.311517
0.310806
0.31009
0.309369
0.308644
0.307915
0.307181
0.306444
0.305704
0.30496
0.304214
0.303465
0.302714
0.30196
0.301204
0.300446
0.299687
0.298926
0.298164
0.297401
0.296636
0.295871
0.295105
0.294339
0.293572
0.292804
0.292037
0.291269
0.290501
0.289733
0.288966
0.288199
0.287432
0.286666
0.2859
0.285135
0.284371
0.283608
0.282845
0.282083
0.281323
0.280563
0.279805
0.279048
0.278292
0.277537
0.276784
0.276032
0.275282
0.274533
0.273785
0.273039
0.272295
0.271553
0.270812
0.270073
0.269336
0.2686
0.267866
0.267135
0.266405
0.265677
0.26495
0.264226
0.263504
0.262784
0.262066
0.26135
0.260636
0.259924
0.259214
0.258506
0.257801
0.257097
0.256396
0.255697
0.255
0.254305
0.253612
0.252922
0.252234
0.251548
0.250864
0.250183
0.249504
0.248827
0.248152
0.24748
0.246809
0.246141
0.245476
0.244813
0.244151
0.243493
0.242836
0.242182
0.24153
0.24088
0.240233
0.239588
0.238945
0.238305
0.237667
0.237031
0.236397
0.235766
0.235137
0.23451
0.233885
0.233263
0.232643
0.232026
0.23141
0.230797
0.230186
0.229577
0.228971
0.228367
0.227765
0.227165
0.226567
0.225972
0.225379
0.224788
0.224199
0.223613
0.223029
0.222447
0.221867
0.221289
0.220713
0.22014
0.219569
0.218999
0.218433
0.217868
0.217305
0.216744
0.216186
0.215629
0.215075
0.214523
0.213973
0.213425
0.212879
0.212335
0.211793
0.211253
0.210716
0.21018
0.209646
0.209114
0.208585
0.208057
0.207531
0.207008
0.206486
0.205966
0.205448
0.204932
0.204419
0.203907
0.203397
0.202888
0.202382
0.201878
0.201375
0.200875
0.200376
0.19988
0.199385
0.198892
0.1984
0.197911
0.197424
0.196938
0.196454
0.195972
0.195492
0.195013
0.194536
0.194062
0.193588
0.193117
0.192647
0.192179
0.191713
0.191249
0.190786
0.190325
0.189866
0.189408
0.188953
0.188498
0.188046
0.187595
0.187146
0.186698
0.186252
0.185808
0.185366
0.184925
0.184485
0.184048
0.183611
0.183177
0.182744
0.182312
0.181883
0.181454
0.181028
0.180603
0.180179
0.179757
0.179336
0.178917
0.1785
0.178084
0.177669
0.177256
0.176845
0.176435
0.176026
0.175619
0.175213
0.174809
0.174407
0.174005
0.173605
0.173207
0.17281
0.172414
0.17202
0.171627
0.171236
0.170846
0.170457
0.17007
0.169684
0.1693
0.168916
0.168534
0.168154
0.167775
0.167397
0.16702
0.166645
0.166271
0.165899
0.165527
0.165157
0.164789
0.164421
0.164055
0.16369
0.163327
0.162964
0.162603
0.162243
0.161885
0.161527
0.161171
0.160816
0.160462
0.16011
0.159758
0.159408
0.159059
0.158712
0.158365
0.15802
0.157675
0.157332
0.15699
0.15665
0.15631
0.155972
0.155634
0.155298
0.154963
0.154629
0.154296
0.153965
0.153634
0.153305
0.152976
0.152649
0.152323
0.151997
0.151673
0.15135
0.151029
0.150708
0.150388
0.150069
0.149751
0.149435
0.149119
0.148805
0.148492
0.148182
0.147885
0.147641
0.206917
0.20727
0.207705
0.208235
0.208879
0.209666
0.210621
0.211767
0.213122
0.214699
0.2165
0.218526
0.220767
0.223209
0.225833
0.228617
0.231537
0.234567
0.237681
0.240856
0.244067
0.247292
0.250513
0.253711
0.25687
0.259976
0.26302
0.26599
0.268878
0.271679
0.274387
0.276999
0.279511
0.281923
0.284233
0.286441
0.288547
0.290553
0.292459
0.294268
0.295981
0.2976
0.299128
0.300567
0.30192
0.303189
0.304376
0.305486
0.306519
0.307479
0.308369
0.30919
0.309946
0.310639
0.311272
0.311846
0.312364
0.312828
0.31324
0.313603
0.313919
0.314188
0.314414
0.314597
0.314741
0.314845
0.314913
0.314945
0.314943
0.314908
0.314843
0.314747
0.314622
0.31447
0.314292
0.314089
0.313861
0.31361