/*--------------------------------*- C++ -*----------------------------------*\
| =========                 |                                                 |
| \\      /  F ield         | OpenFOAM: The Open Source CFD Toolbox           |
|  \\    /   O peration     | Version:  2506                                  |
|   \\  /    A nd           | Website:  www.openfoam.com                      |
|    \\/     M anipulation  |                                                 |
\*---------------------------------------------------------------------------*/
FoamFile
{
    version     2.0;
    format      ascii;
    arch        "LSB;label=32;scalar=64";
    class       volScalarField;
    location    "1000";
    object      nut;
}
// * * * * * * * * * * * * * * * * * * * * * * * * * * * * * * * * * * * * * //

dimensions      [0 2 -1 0 0 0 0];

internalField   nonuniform List<scalar> 
131949
(
0.0659348
0.068194
0.068284
0.0682257
0.0682935
0.0684261
0.0685771
0.0687316
0.0688829
0.0690269
0.0691625
0.0692894
0.0694083
0.0695196
0.069624
0.0697222
0.0698148
0.0699021
0.0699848
0.0700631
0.0701375
0.0702084
0.0702759
0.0703403
0.0704019
0.0704609
0.0705174
0.0705717
0.0706238
0.070674
0.0707223
0.0707689
0.0708138
0.0708573
0.0708992
0.0709398
0.0709792
0.0710173
0.0710542
0.0710901
0.0711249
0.0711587
0.0711916
0.0712236
0.0712547
0.071285
0.0713146
0.0713434
0.0713714
0.0713988
0.0714256
0.0714517
0.0714772
0.0715022
0.0715265
0.0715504
0.0715737
0.0715965
0.0716189
0.0716408
0.0716622
0.0716833
0.0717039
0.0717241
0.0717439
0.0717633
0.0717824
0.0718012
0.0718196
0.0718376
0.0718554
0.0718728
0.07189
0.0719068
0.0719234
0.0719397
0.0719557
0.0719715
0.071987
0.0720023
0.0720173
0.0720321
0.0720467
0.072061
0.0720752
0.0720891
0.0721028
0.0721164
0.0721297
0.0721429
0.0721558
0.0721686
0.0721812
0.0721937
0.072206
0.0722181
0.07223
0.0722418
0.0722535
0.072265
0.0722763
0.0722876
0.0722986
0.0723096
0.0723204
0.072331
0.0723416
0.072352
0.0723623
0.0723725
0.0723826
0.0723925
0.0724023
0.0724121
0.0724217
0.0724312
0.0724406
0.0724499
0.0724591
0.0724682
0.0724772
0.0724861
0.072495
0.0725037
0.0725123
0.0725209
0.0725294
0.0725378
0.0725461
0.0725543
0.0725624
0.0725705
0.0725785
0.0725864
0.0725942
0.072602
0.0726097
0.0726173
0.0726249
0.0726323
0.0726398
0.0726471
0.0726544
0.0726616
0.0726688
0.0726759
0.0726829
0.0726899
0.0726968
0.0727037
0.0727105
0.0727172
0.0727239
0.0727306
0.0727371
0.0727437
0.0727502
0.0727566
0.072763
0.0727693
0.0727756
0.0727818
0.072788
0.0727942
0.0728003
0.0728063
0.0728123
0.0728183
0.0728242
0.0728301
0.0728359
0.0728417
0.0728475
0.0728532
0.0728589
0.0728646
0.0728702
0.0728757
0.0728813
0.0728868
0.0728922
0.0728977
0.0729031
0.0729084
0.0729138
0.0729191
0.0729243
0.0729296
0.0729348
0.0729399
0.0729451
0.0729502
0.0729553
0.0729603
0.0729654
0.0729704
0.0729754
0.0729803
0.0729852
0.0729901
0.072995
0.0729998
0.0730047
0.0730095
0.0730142
0.073019
0.0730237
0.0730284
0.0730331
0.0730378
0.0730424
0.073047
0.0730516
0.0730562
0.0730608
0.0730653
0.0730698
0.0730743
0.0730788
0.0730833
0.0730877
0.0730921
0.0730965
0.0731009
0.0731053
0.0731096
0.0731139
0.0731183
0.0731226
0.0731268
0.0731311
0.0731354
0.0731396
0.0731438
0.073148
0.0731522
0.0731564
0.0731605
0.0731647
0.0731688
0.0731729
0.073177
0.0731811
0.0731851
0.0731892
0.0731932
0.0731973
0.0732013
0.0732053
0.0732093
0.0732133
0.0732172
0.0732212
0.0732251
0.073229
0.073233
0.0732369
0.0732408
0.0732446
0.0732485
0.0732524
0.0732562
0.07326
0.0732638
0.0732677
0.0732715
0.0732752
0.073279
0.0732828
0.0732865
0.0732903
0.073294
0.0732977
0.0733014
0.0733051
0.0733088
0.0733125
0.0733162
0.0733198
0.0733235
0.0733271
0.0733308
0.0733344
0.073338
0.0733416
0.0733452
0.0733487
0.0733523
0.0733559
0.0733594
0.073363
0.0733665
0.07337
0.0733735
0.073377
0.0733805
0.073384
0.0733875
0.0733909
0.0733944
0.0733978
0.0734013
0.0734047
0.0734081
0.0734115
0.0734149
0.0734183
0.0734217
0.073425
0.0734284
0.0734318
0.0734351
0.0734384
0.0734418
0.0734451
0.0734484
0.0734517
0.073455
0.0734582
0.0734615
0.0734648
0.073468
0.0734713
0.0734745
0.0734777
0.0734809
0.0734841
0.0734873
0.0734905
0.0734937
0.0734968
0.0735
0.0735032
0.0735063
0.0735094
0.0735125
0.0735156
0.0735187
0.0735218
0.0735249
0.073528
0.073531
0.0735341
0.0735371
0.0735401
0.0735432
0.0735462
0.0735492
0.0735521
0.0735551
0.0735581
0.073561
0.073564
0.0735669
0.0735698
0.0735727
0.0735756
0.0735785
0.0735814
0.0735842
0.0735871
0.0735899
0.0735927
0.0735955
0.0735983
0.0736011
0.0736039
0.0736066
0.0736094
0.0736121
0.0736148
0.0736175
0.0736202
0.0736228
0.0736255
0.0736281
0.0736308
0.0736334
0.073636
0.0736385
0.0736411
0.0736436
0.0736461
0.0736487
0.0736511
0.0736536
0.0736561
0.0736585
0.0736609
0.0736633
0.0736657
0.0736681
0.0736704
0.0736728
0.0736751
0.0736775
0.0736802
0.0736837
0.0736894
0.0736987
0.0637129
0.066255
0.0678732
0.0686936
0.0691245
0.0693616
0.0694973
0.0695891
0.0696653
0.0697365
0.069806
0.069875
0.0699434
0.070011
0.0700774
0.0701424
0.0702056
0.0702671
0.0703267
0.0703844
0.0704403
0.0704944
0.0705467
0.0705974
0.0706463
0.0706938
0.0707397
0.0707841
0.0708272
0.070869
0.0709095
0.0709488
0.070987
0.0710241
0.0710601
0.0710952
0.0711293
0.0711624
0.0711947
0.0712262
0.0712569
0.0712868
0.0713159
0.0713444
0.0713722
0.0713993
0.0714258
0.0714517
0.071477
0.0715017
0.071526
0.0715497
0.0715729
0.0715956
0.0716178
0.0716397
0.071661
0.071682
0.0717025
0.0717227
0.0717425
0.0717619
0.0717809
0.0717996
0.071818
0.071836
0.0718538
0.0718712
0.0718883
0.0719052
0.0719218
0.071938
0.0719541
0.0719698
0.0719854
0.0720007
0.0720157
0.0720305
0.0720451
0.0720595
0.0720736
0.0720876
0.0721013
0.0721149
0.0721282
0.0721414
0.0721544
0.0721672
0.0721799
0.0721923
0.0722046
0.0722168
0.0722287
0.0722405
0.0722522
0.0722637
0.0722751
0.0722864
0.0722974
0.0723084
0.0723192
0.0723299
0.0723405
0.0723509
0.0723613
0.0723715
0.0723815
0.0723915
0.0724014
0.0724111
0.0724208
0.0724303
0.0724397
0.072449
0.0724583
0.0724674
0.0724764
0.0724853
0.0724942
0.0725029
0.0725116
0.0725202
0.0725287
0.0725371
0.0725454
0.0725536
0.0725618
0.0725698
0.0725778
0.0725858
0.0725936
0.0726014
0.0726091
0.0726167
0.0726243
0.0726318
0.0726392
0.0726466
0.0726539
0.0726611
0.0726683
0.0726754
0.0726824
0.0726894
0.0726963
0.0727032
0.07271
0.0727168
0.0727235
0.0727301
0.0727367
0.0727433
0.0727497
0.0727562
0.0727626
0.0727689
0.0727752
0.0727814
0.0727876
0.0727938
0.0727999
0.0728059
0.0728119
0.0728179
0.0728238
0.0728297
0.0728356
0.0728414
0.0728471
0.0728528
0.0728585
0.0728642
0.0728698
0.0728753
0.0728809
0.0728864
0.0728918
0.0728972
0.0729026
0.072908
0.0729133
0.0729186
0.0729239
0.0729291
0.0729343
0.0729395
0.0729446
0.0729497
0.0729548
0.0729598
0.0729648
0.0729698
0.0729748
0.0729797
0.0729847
0.0729895
0.0729944
0.0729992
0.073004
0.0730088
0.0730136
0.0730183
0.0730231
0.0730277
0.0730324
0.0730371
0.0730417
0.0730463
0.0730509
0.0730554
0.07306
0.0730645
0.073069
0.0730735
0.073078
0.0730824
0.0730868
0.0730912
0.0730956
0.0731
0.0731043
0.0731087
0.073113
0.0731173
0.0731216
0.0731258
0.0731301
0.0731343
0.0731385
0.0731427
0.0731469
0.0731511
0.0731552
0.0731594
0.0731635
0.0731676
0.0731717
0.0731758
0.0731799
0.0731839
0.073188
0.073192
0.073196
0.0732
0.073204
0.073208
0.0732119
0.0732159
0.0732198
0.0732237
0.0732276
0.0732315
0.0732354
0.0732393
0.0732432
0.073247
0.0732509
0.0732547
0.0732585
0.0732623
0.0732661
0.0732699
0.0732737
0.0732774
0.0732812
0.0732849
0.0732886
0.0732924
0.0732961
0.0732998
0.0733035
0.0733071
0.0733108
0.0733145
0.0733181
0.0733218
0.0733254
0.073329
0.0733326
0.0733362
0.0733398
0.0733434
0.0733469
0.0733505
0.073354
0.0733576
0.0733611
0.0733646
0.0733681
0.0733717
0.0733751
0.0733786
0.0733821
0.0733856
0.073389
0.0733925
0.0733959
0.0733993
0.0734028
0.0734062
0.0734096
0.073413
0.0734163
0.0734197
0.0734231
0.0734264
0.0734298
0.0734331
0.0734365
0.0734398
0.0734431
0.0734464
0.0734497
0.073453
0.0734562
0.0734595
0.0734628
0.073466
0.0734693
0.0734725
0.0734757
0.0734789
0.0734821
0.0734853
0.0734885
0.0734917
0.0734949
0.073498
0.0735012
0.0735043
0.0735074
0.0735106
0.0735137
0.0735168
0.0735199
0.073523
0.073526
0.0735291
0.0735321
0.0735352
0.0735382
0.0735413
0.0735443
0.0735473
0.0735503
0.0735533
0.0735562
0.0735592
0.0735622
0.0735651
0.073568
0.0735709
0.0735739
0.0735768
0.0735796
0.0735825
0.0735854
0.0735882
0.0735911
0.0735939
0.0735967
0.0735995
0.0736023
0.0736051
0.0736079
0.0736106
0.0736133
0.0736161
0.0736188
0.0736215
0.0736242
0.0736268
0.0736295
0.0736321
0.0736348
0.0736374
0.07364
0.0736425
0.0736451
0.0736476
0.0736502
0.0736527
0.0736552
0.0736577
0.0736601
0.0736626
0.073665
0.0736674
0.0736698
0.0736722
0.0736746
0.0736769
0.0736792
0.0736815
0.0736838
0.0736862
0.0736889
0.0736924
0.073698
0.0737073
0.0627756
0.0647438
0.0664136
0.0676594
0.0685604
0.0691961
0.0696295
0.0699228
0.0701254
0.0702697
0.0703766
0.0704597
0.0705275
0.0705856
0.0706372
0.0706844
0.0707286
0.0707706
0.0708108
0.0708497
0.0708874
0.0709241
0.0709599
0.0709948
0.071029
0.0710624
0.071095
0.0711269
0.0711582
0.0711888
0.0712187
0.071248
0.0712767
0.0713048
0.0713324
0.0713593
0.0713857
0.0714116
0.0714369
0.0714618
0.0714861
0.07151
0.0715334
0.0715563
0.0715788
0.0716009
0.0716226
0.0716439
0.0716648
0.0716853
0.0717054
0.0717252
0.0717446
0.0717637
0.0717825
0.0718009
0.071819
0.0718368
0.0718544
0.0718716
0.0718886
0.0719053
0.0719217
0.0719378
0.0719537
0.0719694
0.0719848
0.072
0.072015
0.0720297
0.0720443
0.0720586
0.0720727
0.0720866
0.0721003
0.0721138
0.0721271
0.0721403
0.0721532
0.072166
0.0721787
0.0721911
0.0722034
0.0722155
0.0722275
0.0722393
0.072251
0.0722625
0.0722739
0.0722851
0.0722962
0.0723072
0.072318
0.0723287
0.0723393
0.0723498
0.0723601
0.0723703
0.0723804
0.0723904
0.0724003
0.0724101
0.0724197
0.0724293
0.0724387
0.072448
0.0724573
0.0724664
0.0724755
0.0724844
0.0724933
0.0725021
0.0725107
0.0725193
0.0725278
0.0725363
0.0725446
0.0725529
0.072561
0.0725691
0.0725771
0.0725851
0.0725929
0.0726007
0.0726085
0.0726161
0.0726237
0.0726312
0.0726386
0.072646
0.0726533
0.0726606
0.0726677
0.0726749
0.0726819
0.0726889
0.0726959
0.0727027
0.0727096
0.0727163
0.072723
0.0727297
0.0727363
0.0727428
0.0727493
0.0727558
0.0727622
0.0727685
0.0727748
0.072781
0.0727872
0.0727934
0.0727995
0.0728055
0.0728115
0.0728175
0.0728234
0.0728293
0.0728352
0.0728409
0.0728467
0.0728524
0.0728581
0.0728637
0.0728693
0.0728749
0.0728804
0.0728859
0.0728913
0.0728968
0.0729021
0.0729075
0.0729128
0.0729181
0.0729233
0.0729285
0.0729337
0.0729389
0.072944
0.0729491
0.0729541
0.0729592
0.0729642
0.0729691
0.0729741
0.072979
0.0729839
0.0729887
0.0729936
0.0729984
0.0730032
0.0730079
0.0730127
0.0730174
0.0730221
0.0730267
0.0730314
0.073036
0.0730406
0.0730452
0.0730497
0.0730543
0.0730588
0.0730633
0.0730677
0.0730722
0.0730766
0.073081
0.0730854
0.0730898
0.0730941
0.0730985
0.0731028
0.0731071
0.0731114
0.0731157
0.0731199
0.0731241
0.0731283
0.0731325
0.0731367
0.0731409
0.073145
0.0731492
0.0731533
0.0731574
0.0731615
0.0731656
0.0731696
0.0731737
0.0731777
0.0731817
0.0731858
0.0731897
0.0731937
0.0731977
0.0732016
0.0732056
0.0732095
0.0732134
0.0732173
0.0732212
0.0732251
0.073229
0.0732328
0.0732367
0.0732405
0.0732443
0.0732481
0.0732519
0.0732557
0.0732595
0.0732633
0.073267
0.0732708
0.0732745
0.0732782
0.0732819
0.0732856
0.0732893
0.073293
0.0732967
0.0733003
0.073304
0.0733076
0.0733113
0.0733149
0.0733185
0.0733221
0.0733257
0.0733293
0.0733328
0.0733364
0.07334
0.0733435
0.0733471
0.0733506
0.0733541
0.0733576
0.0733611
0.0733646
0.0733681
0.0733716
0.073375
0.0733785
0.0733819
0.0733854
0.0733888
0.0733922
0.0733956
0.073399
0.0734024
0.0734058
0.0734092
0.0734126
0.0734159
0.0734193
0.0734226
0.073426
0.0734293
0.0734326
0.0734359
0.0734392
0.0734425
0.0734458
0.0734491
0.0734523
0.0734556
0.0734589
0.0734621
0.0734653
0.0734686
0.0734718
0.073475
0.0734782
0.0734814
0.0734846
0.0734878
0.0734909
0.0734941
0.0734972
0.0735004
0.0735035
0.0735066
0.0735098
0.0735129
0.073516
0.0735191
0.0735221
0.0735252
0.0735283
0.0735313
0.0735344
0.0735374
0.0735405
0.0735435
0.0735465
0.0735495
0.0735525
0.0735555
0.0735584
0.0735614
0.0735644
0.0735673
0.0735702
0.0735732
0.0735761
0.073579
0.0735819
0.0735848
0.0735876
0.0735905
0.0735934
0.0735962
0.073599
0.0736018
0.0736047
0.0736075
0.0736102
0.073613
0.0736158
0.0736185
0.0736213
0.073624
0.0736267
0.0736294
0.0736321
0.0736348
0.0736374
0.0736401
0.0736427
0.0736453
0.0736479
0.0736505
0.0736531
0.0736556
0.0736582
0.0736607
0.0736632
0.0736657
0.0736682
0.0736707
0.0736731
0.0736756
0.073678
0.0736804
0.0736828
0.0736851
0.0736875
0.0736898
0.0736921
0.0736944
0.0736967
0.073699
0.0737012
0.0737036
0.0737062
0.0737096
0.0737153
0.0737245
0.0620602
0.063308
0.0646078
0.0658342
0.0669193
0.0678343
0.0685744
0.0691571
0.0696103
0.0699611
0.0702329
0.0704448
0.0706118
0.0707451
0.0708532
0.0709423
0.0710172
0.0710812
0.0711368
0.0711859
0.07123
0.07127
0.0713068
0.0713409
0.071373
0.0714032
0.0714319
0.0714594
0.0714857
0.0715111
0.0715357
0.0715594
0.0715826
0.071605
0.071627
0.0716484
0.0716693
0.0716897
0.0717098
0.0717294
0.0717487
0.0717676
0.0717861
0.0718044
0.0718223
0.0718399
0.0718572
0.0718742
0.0718909
0.0719074
0.0719236
0.0719396
0.0719553
0.0719708
0.0719861
0.0720011
0.0720159
0.0720305
0.0720449
0.0720591
0.0720731
0.0720869
0.0721005
0.0721139
0.0721271
0.0721402
0.0721531
0.0721658
0.0721783
0.0721907
0.072203
0.0722151
0.072227
0.0722388
0.0722504
0.0722619
0.0722733
0.0722845
0.0722956
0.0723065
0.0723173
0.072328
0.0723386
0.072349
0.0723594
0.0723696
0.0723797
0.0723897
0.0723996
0.0724093
0.072419
0.0724285
0.072438
0.0724474
0.0724566
0.0724658
0.0724748
0.0724838
0.0724927
0.0725015
0.0725102
0.0725188
0.0725273
0.0725357
0.0725441
0.0725523
0.0725605
0.0725687
0.0725767
0.0725846
0.0725925
0.0726003
0.0726081
0.0726157
0.0726233
0.0726309
0.0726383
0.0726457
0.072653
0.0726603
0.0726675
0.0726746
0.0726817
0.0726887
0.0726957
0.0727025
0.0727094
0.0727162
0.0727229
0.0727295
0.0727361
0.0727427
0.0727492
0.0727556
0.072762
0.0727684
0.0727747
0.0727809
0.0727871
0.0727933
0.0727994
0.0728055
0.0728115
0.0728174
0.0728234
0.0728292
0.0728351
0.0728409
0.0728466
0.0728523
0.072858
0.0728636
0.0728692
0.0728748
0.0728803
0.0728858
0.0728912
0.0728966
0.072902
0.0729073
0.0729126
0.0729179
0.0729231
0.0729283
0.0729335
0.0729386
0.0729437
0.0729488
0.0729538
0.0729588
0.0729638
0.0729687
0.0729736
0.0729785
0.0729834
0.0729882
0.072993
0.0729978
0.0730025
0.0730073
0.073012
0.0730166
0.0730213
0.0730259
0.0730305
0.0730351
0.0730397
0.0730442
0.0730487
0.0730532
0.0730577
0.0730621
0.0730665
0.0730709
0.0730753
0.0730797
0.073084
0.0730883
0.0730926
0.0730969
0.0731012
0.0731055
0.0731097
0.0731139
0.0731181
0.0731223
0.0731264
0.0731306
0.0731347
0.0731388
0.0731429
0.073147
0.0731511
0.0731551
0.0731592
0.0731632
0.0731672
0.0731712
0.0731752
0.0731792
0.0731831
0.073187
0.073191
0.0731949
0.0731988
0.0732027
0.0732065
0.0732104
0.0732143
0.0732181
0.0732219
0.0732257
0.0732295
0.0732333
0.0732371
0.0732409
0.0732446
0.0732484
0.0732521
0.0732558
0.0732595
0.0732633
0.0732669
0.0732706
0.0732743
0.073278
0.0732816
0.0732853
0.0732889
0.0732925
0.0732961
0.0732997
0.0733033
0.0733069
0.0733105
0.0733141
0.0733176
0.0733212
0.0733247
0.0733282
0.0733318
0.0733353
0.0733388
0.0733423
0.0733458
0.0733493
0.0733527
0.0733562
0.0733597
0.0733631
0.0733665
0.07337
0.0733734
0.0733768
0.0733802
0.0733836
0.073387
0.0733904
0.0733938
0.0733971
0.0734005
0.0734038
0.0734072
0.0734105
0.0734138
0.0734172
0.0734205
0.0734238
0.0734271
0.0734304
0.0734336
0.0734369
0.0734402
0.0734434
0.0734467
0.0734499
0.0734532
0.0734564
0.0734596
0.0734628
0.073466
0.0734692
0.0734724
0.0734756
0.0734788
0.0734819
0.0734851
0.0734882
0.0734914
0.0734945
0.0734977
0.0735008
0.0735039
0.073507
0.0735101
0.0735132
0.0735163
0.0735193
0.0735224
0.0735255
0.0735285
0.0735316
0.0735346
0.0735376
0.0735407
0.0735437
0.0735467
0.0735497
0.0735527
0.0735556
0.0735586
0.0735616
0.0735645
0.0735675
0.0735704
0.0735734
0.0735763
0.0735792
0.0735821
0.073585
0.0735879
0.0735908
0.0735936
0.0735965
0.0735993
0.0736022
0.073605
0.0736078
0.0736107
0.0736135
0.0736162
0.073619
0.0736218
0.0736246
0.0736273
0.0736301
0.0736328
0.0736355
0.0736382
0.0736409
0.0736436
0.0736463
0.0736489
0.0736516
0.0736542
0.0736568
0.0736595
0.0736621
0.0736647
0.0736672
0.0736698
0.0736723
0.0736749
0.0736774
0.0736799
0.0736824
0.0736849
0.0736873
0.0736898
0.0736922
0.0736946
0.073697
0.0736994
0.0737018
0.0737041
0.0737065
0.0737088
0.0737111
0.0737134
0.0737156
0.0737179
0.0737201
0.0737223
0.0737245
0.0737268
0.073729
0.0737316
0.073735
0.0737406
0.0737497
0.0616763
0.0623976
0.0632484
0.0641755
0.0651192
0.0660283
0.0668645
0.0676064
0.0682489
0.0687958
0.0692564
0.0696417
0.0699631
0.0702314
0.0704557
0.0706442
0.0708033
0.0709385
0.0710542
0.0711539
0.0712405
0.0713163
0.0713831
0.0714426
0.0714958
0.0715438
0.0715873
0.0716272
0.0716638
0.0716977
0.0717292
0.0717587
0.0717864
0.0718125
0.0718372
0.0718607
0.0718831
0.0719046
0.0719252
0.071945
0.0719641
0.0719826
0.0720004
0.0720178
0.0720346
0.072051
0.072067
0.0720825
0.0720977
0.0721126
0.0721271
0.0721413
0.0721553
0.0721689
0.0721824
0.0721955
0.0722085
0.0722212
0.0722337
0.072246
0.0722581
0.07227
0.0722818
0.0722933
0.0723047
0.072316
0.0723271
0.072338
0.0723488
0.0723594
0.0723699
0.0723803
0.0723906
0.0724007
0.0724107
0.0724205
0.0724303
0.0724399
0.0724495
0.0724589
0.0724682
0.0724774
0.0724865
0.0724955
0.0725044
0.0725132
0.0725219
0.0725306
0.0725391
0.0725476
0.0725559
0.0725642
0.0725724
0.0725805
0.0725885
0.0725965
0.0726043
0.0726121
0.0726199
0.0726275
0.0726351
0.0726426
0.07265
0.0726574
0.0726647
0.0726719
0.0726791
0.0726862
0.0726933
0.0727002
0.0727072
0.072714
0.0727208
0.0727276
0.0727342
0.0727409
0.0727474
0.072754
0.0727604
0.0727668
0.0727732
0.0727795
0.0727857
0.072792
0.0727981
0.0728042
0.0728103
0.0728163
0.0728223
0.0728282
0.0728341
0.0728399
0.0728457
0.0728514
0.0728571
0.0728628
0.0728684
0.072874
0.0728795
0.072885
0.0728905
0.0728959
0.0729013
0.0729067
0.072912
0.0729172
0.0729225
0.0729277
0.0729329
0.072938
0.0729431
0.0729482
0.0729532
0.0729582
0.0729632
0.0729681
0.072973
0.0729779
0.0729828
0.0729876
0.0729924
0.0729971
0.0730019
0.0730066
0.0730112
0.0730159
0.0730205
0.0730251
0.0730297
0.0730342
0.0730388
0.0730433
0.0730477
0.0730522
0.0730566
0.073061
0.0730654
0.0730698
0.0730741
0.0730784
0.0730827
0.073087
0.0730912
0.0730955
0.0730997
0.0731039
0.0731081
0.0731122
0.0731164
0.0731205
0.0731246
0.0731287
0.0731327
0.0731368
0.0731408
0.0731448
0.0731489
0.0731528
0.0731568
0.0731608
0.0731647
0.0731686
0.0731725
0.0731764
0.0731803
0.0731842
0.0731881
0.0731919
0.0731957
0.0731995
0.0732033
0.0732071
0.0732109
0.0732147
0.0732184
0.0732222
0.0732259
0.0732296
0.0732333
0.073237
0.0732407
0.0732444
0.0732481
0.0732517
0.0732553
0.073259
0.0732626
0.0732662
0.0732698
0.0732734
0.073277
0.0732806
0.0732841
0.0732877
0.0732912
0.0732948
0.0732983
0.0733018
0.0733053
0.0733088
0.0733123
0.0733158
0.0733193
0.0733227
0.0733262
0.0733296
0.0733331
0.0733365
0.0733399
0.0733434
0.0733468
0.0733502
0.0733536
0.073357
0.0733603
0.0733637
0.0733671
0.0733704
0.0733738
0.0733771
0.0733805
0.0733838
0.0733871
0.0733904
0.0733938
0.0733971
0.0734003
0.0734036
0.0734069
0.0734102
0.0734135
0.0734167
0.07342
0.0734232
0.0734265
0.0734297
0.0734329
0.0734361
0.0734393
0.0734426
0.0734458
0.0734489
0.0734521
0.0734553
0.0734585
0.0734616
0.0734648
0.073468
0.0734711
0.0734742
0.0734774
0.0734805
0.0734836
0.0734867
0.0734898
0.0734929
0.073496
0.0734991
0.0735022
0.0735053
0.0735084
0.0735114
0.0735145
0.0735175
0.0735206
0.0735236
0.0735266
0.0735296
0.0735327
0.0735357
0.0735387
0.0735417
0.0735446
0.0735476
0.0735506
0.0735536
0.0735565
0.0735595
0.0735624
0.0735654
0.0735683
0.0735712
0.0735742
0.0735771
0.07358
0.0735829
0.0735858
0.0735886
0.0735915
0.0735944
0.0735972
0.0736001
0.0736029
0.0736058
0.0736086
0.0736114
0.0736143
0.0736171
0.0736199
0.0736227
0.0736254
0.0736282
0.073631
0.0736337
0.0736365
0.0736392
0.073642
0.0736447
0.0736474
0.0736501
0.0736528
0.0736555
0.0736582
0.0736608
0.0736635
0.0736661
0.0736688
0.0736714
0.073674
0.0736766
0.0736792
0.0736818
0.0736844
0.0736869
0.0736895
0.073692
0.0736945
0.073697
0.0736995
0.073702
0.0737045
0.073707
0.0737094
0.0737119
0.0737143
0.0737167
0.0737191
0.0737215
0.0737238
0.0737262
0.0737285
0.0737308
0.0737331
0.0737354
0.0737377
0.07374
0.0737422
0.0737444
0.0737466
0.0737488
0.073751
0.0737532
0.0737553
0.0737574
0.0737596
0.0737618
0.0737643
0.0737676
0.0737731
0.0737822
0.0614873
0.0618997
0.0624111
0.0630134
0.0636872
0.0644048
0.0651352
0.0658502
0.0665284
0.0671565
0.0677273
0.0682388
0.0686925
0.0690921
0.0694426
0.0697492
0.0700172
0.0702516
0.070457
0.0706372
0.0707959
0.070936
0.0710601
0.0711706
0.0712692
0.0713576
0.0714371
0.071509
0.0715742
0.0716336
0.0716878
0.0717376
0.0717835
0.0718258
0.0718651
0.0719016
0.0719357
0.0719676
0.0719976
0.0720258
0.0720524
0.0720776
0.0721015
0.0721243
0.0721459
0.0721666
0.0721864
0.0722054
0.0722237
0.0722412
0.0722581
0.0722744
0.0722902
0.0723055
0.0723203
0.0723346
0.0723486
0.0723621
0.0723753
0.0723882
0.0724008
0.072413
0.072425
0.0724367
0.0724481
0.0724593
0.0724703
0.0724811
0.0724916
0.072502
0.0725122
0.0725222
0.072532
0.0725417
0.0725512
0.0725606
0.0725698
0.0725788
0.0725878
0.0725966
0.0726053
0.0726138
0.0726223
0.0726306
0.0726388
0.072647
0.072655
0.0726629
0.0726707
0.0726785
0.0726861
0.0726936
0.0727011
0.0727085
0.0727158
0.072723
0.0727301
0.0727372
0.0727442
0.0727511
0.0727579
0.0727647
0.0727714
0.0727781
0.0727846
0.0727912
0.0727976
0.072804
0.0728103
0.0728166
0.0728228
0.072829
0.0728351
0.0728411
0.0728471
0.0728531
0.072859
0.0728648
0.0728706
0.0728764
0.0728821
0.0728877
0.0728933
0.0728989
0.0729044
0.0729099
0.0729153
0.0729207
0.0729261
0.0729314
0.0729367
0.0729419
0.0729471
0.0729522
0.0729574
0.0729624
0.0729675
0.0729725
0.0729775
0.0729824
0.0729873
0.0729922
0.072997
0.0730018
0.0730066
0.0730113
0.0730161
0.0730207
0.0730254
0.07303
0.0730346
0.0730392
0.0730437
0.0730482
0.0730527
0.0730571
0.0730616
0.073066
0.0730703
0.0730747
0.073079
0.0730833
0.0730876
0.0730918
0.0730961
0.0731003
0.0731045
0.0731086
0.0731128
0.0731169
0.073121
0.0731251
0.0731291
0.0731332
0.0731372
0.0731412
0.0731451
0.0731491
0.073153
0.073157
0.0731609
0.0731648
0.0731686
0.0731725
0.0731763
0.0731802
0.073184
0.0731878
0.0731915
0.0731953
0.073199
0.0732028
0.0732065
0.0732102
0.0732139
0.0732176
0.0732212
0.0732249
0.0732285
0.0732322
0.0732358
0.0732394
0.073243
0.0732466
0.0732501
0.0732537
0.0732572
0.0732608
0.0732643
0.0732678
0.0732713
0.0732748
0.0732783
0.0732818
0.0732853
0.0732887
0.0732922
0.0732956
0.073299
0.0733025
0.0733059
0.0733093
0.0733127
0.0733161
0.0733194
0.0733228
0.0733262
0.0733295
0.0733329
0.0733362
0.0733396
0.0733429
0.0733462
0.0733495
0.0733528
0.0733561
0.0733594
0.0733627
0.073366
0.0733692
0.0733725
0.0733757
0.073379
0.0733822
0.0733855
0.0733887
0.0733919
0.0733952
0.0733984
0.0734016
0.0734048
0.073408
0.0734112
0.0734143
0.0734175
0.0734207
0.0734238
0.073427
0.0734302
0.0734333
0.0734364
0.0734396
0.0734427
0.0734458
0.073449
0.0734521
0.0734552
0.0734583
0.0734614
0.0734645
0.0734676
0.0734706
0.0734737
0.0734768
0.0734798
0.0734829
0.073486
0.073489
0.073492
0.0734951
0.0734981
0.0735011
0.0735042
0.0735072
0.0735102
0.0735132
0.0735162
0.0735192
0.0735222
0.0735251
0.0735281
0.0735311
0.0735341
0.073537
0.07354
0.0735429
0.0735459
0.0735488
0.0735517
0.0735547
0.0735576
0.0735605
0.0735634
0.0735663
0.0735692
0.0735721
0.073575
0.0735779
0.0735808
0.0735836
0.0735865
0.0735893
0.0735922
0.073595
0.0735979
0.0736007
0.0736036
0.0736064
0.0736092
0.073612
0.0736148
0.0736176
0.0736204
0.0736232
0.073626
0.0736287
0.0736315
0.0736343
0.073637
0.0736398
0.0736425
0.0736453
0.073648
0.0736507
0.0736534
0.0736561
0.0736588
0.0736615
0.0736642
0.0736669
0.0736695
0.0736722
0.0736749
0.0736775
0.0736802
0.0736828
0.0736854
0.073688
0.0736906
0.0736932
0.0736958
0.0736984
0.073701
0.0737035
0.0737061
0.0737086
0.0737112
0.0737137
0.0737162
0.0737187
0.0737212
0.0737237
0.0737262
0.0737286
0.0737311
0.0737335
0.0737359
0.0737384
0.0737408
0.0737432
0.0737455
0.0737479
0.0737503
0.0737526
0.0737549
0.0737573
0.0737596
0.0737619
0.0737641
0.0737664
0.0737686
0.0737709
0.0737731
0.0737753
0.0737775
0.0737797
0.0737818
0.073784
0.0737861
0.0737882
0.0737903
0.0737924
0.0737944
0.0737965
0.0737986
0.0738007
0.0738031
0.0738063
0.0738118
0.0738208
0.0613929
0.0616395
0.0619447
0.0623136
0.0627464
0.0632374
0.0637743
0.0643413
0.0649214
0.0654994
0.0660623
0.0666003
0.0671066
0.0675775
0.0680111
0.0684076
0.0687682
0.0690949
0.0693902
0.0696567
0.0698971
0.0701139
0.0703096
0.0704864
0.0706464
0.0707914
0.0709231
0.0710429
0.0711521
0.071252
0.0713434
0.0714273
0.0715045
0.0715757
0.0716416
0.0717025
0.0717591
0.0718117
0.0718608
0.0719066
0.0719495
0.0719898
0.0720276
0.0720632
0.0720968
0.0721285
0.0721586
0.072187
0.0722141
0.0722398
0.0722643
0.0722877
0.07231
0.0723314
0.0723519
0.0723715
0.0723904
0.0724085
0.072426
0.0724428
0.072459
0.0724747
0.0724899
0.0725045
0.0725188
0.0725325
0.0725459
0.0725589
0.0725716
0.0725838
0.0725958
0.0726075
0.0726188
0.0726299
0.0726407
0.0726513
0.0726617
0.0726718
0.0726817
0.0726914
0.0727008
0.0727101
0.0727193
0.0727282
0.072737
0.0727456
0.0727541
0.0727624
0.0727706
0.0727786
0.0727865
0.0727943
0.072802
0.0728095
0.072817
0.0728243
0.0728315
0.0728386
0.0728456
0.0728526
0.0728594
0.0728661
0.0728728
0.0728794
0.0728858
0.0728922
0.0728986
0.0729048
0.072911
0.0729171
0.0729232
0.0729291
0.072935
0.0729409
0.0729467
0.0729524
0.072958
0.0729636
0.0729692
0.0729747
0.0729801
0.0729855
0.0729908
0.0729961
0.0730013
0.0730065
0.0730116
0.0730167
0.0730218
0.0730268
0.0730317
0.0730367
0.0730415
0.0730464
0.0730512
0.0730559
0.0730606
0.0730653
0.07307
0.0730746
0.0730792
0.0730837
0.0730882
0.0730927
0.0730971
0.0731015
0.0731059
0.0731102
0.0731146
0.0731189
0.0731231
0.0731273
0.0731315
0.0731357
0.0731399
0.073144
0.0731481
0.0731521
0.0731562
0.0731602
0.0731642
0.0731682
0.0731721
0.073176
0.07318
0.0731838
0.0731877
0.0731915
0.0731954
0.0731992
0.0732029
0.0732067
0.0732104
0.0732142
0.0732179
0.0732215
0.0732252
0.0732289
0.0732325
0.0732361
0.0732397
0.0732433
0.0732469
0.0732504
0.073254
0.0732575
0.073261
0.0732645
0.073268
0.0732715
0.0732749
0.0732784
0.0732818
0.0732852
0.0732887
0.0732921
0.0732954
0.0732988
0.0733022
0.0733055
0.0733089
0.0733122
0.0733155
0.0733189
0.0733222
0.0733255
0.0733288
0.073332
0.0733353
0.0733386
0.0733418
0.0733451
0.0733483
0.0733515
0.0733548
0.073358
0.0733612
0.0733644
0.0733676
0.0733708
0.0733739
0.0733771
0.0733803
0.0733834
0.0733866
0.0733897
0.0733929
0.073396
0.0733991
0.0734022
0.0734054
0.0734085
0.0734116
0.0734147
0.0734178
0.0734208
0.0734239
0.073427
0.0734301
0.0734331
0.0734362
0.0734392
0.0734423
0.0734453
0.0734484
0.0734514
0.0734544
0.0734575
0.0734605
0.0734635
0.0734665
0.0734695
0.0734725
0.0734755
0.0734785
0.0734815
0.0734844
0.0734874
0.0734904
0.0734934
0.0734963
0.0734993
0.0735022
0.0735052
0.0735081
0.0735111
0.073514
0.0735169
0.0735199
0.0735228
0.0735257
0.0735286
0.0735315
0.0735344
0.0735373
0.0735402
0.0735431
0.073546
0.0735489
0.0735518
0.0735546
0.0735575
0.0735604
0.0735632
0.0735661
0.0735689
0.0735718
0.0735746
0.0735775
0.0735803
0.0735831
0.073586
0.0735888
0.0735916
0.0735944
0.0735972
0.0736
0.0736028
0.0736056
0.0736084
0.0736112
0.0736139
0.0736167
0.0736195
0.0736222
0.073625
0.0736278
0.0736305
0.0736333
0.073636
0.0736387
0.0736415
0.0736442
0.0736469
0.0736496
0.0736523
0.073655
0.0736577
0.0736604
0.0736631
0.0736658
0.0736685
0.0736711
0.0736738
0.0736765
0.0736791
0.0736818
0.0736844
0.073687
0.0736897
0.0736923
0.0736949
0.0736975
0.0737001
0.0737027
0.0737053
0.0737079
0.0737105
0.0737131
0.0737156
0.0737182
0.0737207
0.0737233
0.0737258
0.0737284
0.0737309
0.0737334
0.0737359
0.0737384
0.0737409
0.0737434
0.0737459
0.0737483
0.0737508
0.0737533
0.0737557
0.0737581
0.0737606
0.073763
0.0737654
0.0737678
0.0737702
0.0737725
0.0737749
0.0737773
0.0737796
0.0737819
0.0737843
0.0737866
0.0737889
0.0737912
0.0737935
0.0737957
0.073798
0.0738002
0.0738024
0.0738047
0.0738069
0.0738091
0.0738112
0.0738134
0.0738155
0.0738177
0.0738198
0.0738219
0.073824
0.0738261
0.0738281
0.0738302
0.0738322
0.0738342
0.0738362
0.0738382
0.0738402
0.0738422
0.0738442
0.0738465
0.0738497
0.0738551
0.0738641
0.0613427
0.0615007
0.0616908
0.0619183
0.0621878
0.0625019
0.0628597
0.0632567
0.063686
0.0641389
0.0646062
0.0650789
0.0655487
0.0660087
0.0664532
0.0668783
0.0672813
0.0676604
0.068015
0.0683453
0.0686518
0.0689354
0.0691974
0.0694391
0.069662
0.0698674
0.0700568
0.0702314
0.0703925
0.0705414
0.0706789
0.0708062
0.0709242
0.0710336
0.0711353
0.0712298
0.0713179
0.0714
0.0714768
0.0715486
0.0716158
0.0716789
0.0717381
0.0717938
0.0718463
0.0718958
0.0719425
0.0719867
0.0720285
0.0720681
0.0721058
0.0721415
0.0721755
0.0722079
0.0722387
0.0722682
0.0722963
0.0723232
0.0723489
0.0723736
0.0723972
0.07242
0.0724418
0.0724628
0.072483
0.0725024
0.0725212
0.0725393
0.0725568
0.0725736
0.07259
0.0726058
0.0726211
0.0726359
0.0726503
0.0726643
0.0726779
0.072691
0.0727038
0.0727163
0.0727284
0.0727402
0.0727518
0.072763
0.0727739
0.0727846
0.072795
0.0728052
0.0728152
0.0728249
0.0728345
0.0728438
0.0728529
0.0728619
0.0728706
0.0728792
0.0728876
0.0728959
0.072904
0.0729119
0.0729198
0.0729274
0.072935
0.0729424
0.0729497
0.0729568
0.0729639
0.0729708
0.0729776
0.0729844
0.072991
0.0729975
0.0730039
0.0730103
0.0730165
0.0730227
0.0730287
0.0730347
0.0730406
0.0730465
0.0730522
0.0730579
0.0730635
0.0730691
0.0730745
0.0730799
0.0730853
0.0730906
0.0730958
0.073101
0.0731061
0.0731111
0.0731161
0.0731211
0.073126
0.0731308
0.0731356
0.0731403
0.073145
0.0731497
0.0731543