/*--------------------------------*- C++ -*----------------------------------*\
| =========                 |                                                 |
| \\      /  F ield         | OpenFOAM: The Open Source CFD Toolbox           |
|  \\    /   O peration     | Version:  2506                                  |
|   \\  /    A nd           | Website:  www.openfoam.com                      |
|    \\/     M anipulation  |                                                 |
\*---------------------------------------------------------------------------*/
FoamFile
{
    version     2.0;
    format      ascii;
    arch        "LSB;label=32;scalar=64";
    class       volScalarField;
    location    "1000";
    object      p;
}
// * * * * * * * * * * * * * * * * * * * * * * * * * * * * * * * * * * * * * //

dimensions      [0 2 -2 0 0 0 0];

internalField   nonuniform List<scalar> 
131949
(
-32.7246
-25.1162
-21.4377
-20.0674
-18.8396
-17.6943
-16.7853
-16.0364
-15.3776
-14.7904
-14.2647
-13.7888
-13.3535
-12.9527
-12.5812
-12.2353
-11.9116
-11.6075
-11.3207
-11.0495
-10.7923
-10.5476
-10.3144
-10.0917
-9.87856
-9.67422
-9.47801
-9.28931
-9.10761
-8.93241
-8.76327
-8.59981
-8.44168
-8.28855
-8.14012
-7.99614
-7.85635
-7.72053
-7.58847
-7.45998
-7.33489
-7.21303
-7.09425
-6.9784
-6.86536
-6.755
-6.64721
-6.54189
-6.43892
-6.33822
-6.23969
-6.14326
-6.04885
-5.95637
-5.86577
-5.77697
-5.68991
-5.60454
-5.52079
-5.43862
-5.35797
-5.2788
-5.20105
-5.12469
-5.04968
-4.97597
-4.90352
-4.83231
-4.76229
-4.69343
-4.62571
-4.55909
-4.49354
-4.42903
-4.36555
-4.30305
-4.24152
-4.18094
-4.12128
-4.06252
-4.00464
-3.94761
-3.89143
-3.83607
-3.78151
-3.72773
-3.67472
-3.62247
-3.57095
-3.52016
-3.47007
-3.42067
-3.37195
-3.3239
-3.27651
-3.22975
-3.18362
-3.13811
-3.09321
-3.0489
-3.00518
-2.96203
-2.91945
-2.87742
-2.83594
-2.79499
-2.75457
-2.71468
-2.67529
-2.63641
-2.59802
-2.56012
-2.5227
-2.48575
-2.44927
-2.41325
-2.37768
-2.34256
-2.30787
-2.27363
-2.2398
-2.2064
-2.17342
-2.14085
-2.10868
-2.07691
-2.04554
-2.01456
-1.98396
-1.95374
-1.9239
-1.89443
-1.86533
-1.83658
-1.8082
-1.78017
-1.75248
-1.72515
-1.69815
-1.67149
-1.64517
-1.61918
-1.59351
-1.56816
-1.54314
-1.51843
-1.49403
-1.46994
-1.44616
-1.42268
-1.3995
-1.37662
-1.35403
-1.33173
-1.30972
-1.28799
-1.26655
-1.24538
-1.22449
-1.20387
-1.18352
-1.16345
-1.14363
-1.12408
-1.10479
-1.08575
-1.06697
-1.04844
-1.03017
-1.01214
-0.994349
-0.976805
-0.959502
-0.942435
-0.925604
-0.909006
-0.892638
-0.876499
-0.860585
-0.844895
-0.829426
-0.814177
-0.799144
-0.784326
-0.76972
-0.755325
-0.741138
-0.727156
-0.713378
-0.699802
-0.686426
-0.673246
-0.660262
-0.647471
-0.634871
-0.62246
-0.610236
-0.598197
-0.586341
-0.574666
-0.563169
-0.551849
-0.540704
-0.529732
-0.51893
-0.508298
-0.497832
-0.487532
-0.477394
-0.467418
-0.457601
-0.447942
-0.438438
-0.429087
-0.419889
-0.41084
-0.40194
-0.393186
-0.384576
-0.37611
-0.367784
-0.359598
-0.351549
-0.343636
-0.335857
-0.32821
-0.320694
-0.313308
-0.306048
-0.298915
-0.291905
-0.285018
-0.278252
-0.271605
-0.265076
-0.258664
-0.252366
-0.246181
-0.240108
-0.234145
-0.228291
-0.222544
-0.216903
-0.211366
-0.205932
-0.2006
-0.195368
-0.190234
-0.185198
-0.180259
-0.175414
-0.170662
-0.166003
-0.161435
-0.156956
-0.152565
-0.148262
-0.144044
-0.139911
-0.135862
-0.131895
-0.128009
-0.124202
-0.120475
-0.116825
-0.113252
-0.109754
-0.10633
-0.102979
-0.0997007
-0.0964932
-0.0933557
-0.090287
-0.0872862
-0.0843523
-0.0814842
-0.0786809
-0.0759415
-0.0732649
-0.0706503
-0.0680965
-0.0656028
-0.0631681
-0.0607915
-0.0584721
-0.0562089
-0.0540012
-0.051848
-0.0497484
-0.0477016
-0.0457066
-0.0437627
-0.041869
-0.0400246
-0.0382288
-0.0364808
-0.0347796
-0.0331246
-0.031515
-0.0299499
-0.0284286
-0.0269503
-0.0255144
-0.02412
-0.0227664
-0.0214529
-0.0201788
-0.0189433
-0.0177459
-0.0165856
-0.015462
-0.0143743
-0.0133219
-0.012304
-0.0113201
-0.0103695
-0.00945161
-0.00856572
-0.00771125
-0.00688759
-0.00609415
-0.00533032
-0.00459553
-0.00388918
-0.0032107
-0.00255954
-0.00193513
-0.00133693
-0.000764385
-0.000216968
0.000305853
0.000804599
0.00127978
0.00173192
0.0021615
0.00256903
0.00295499
0.00331986
0.00366412
0.00398823
0.00429267
0.00457788
0.00484431
0.00509242
0.00532264
0.0055354
0.00573113
0.00591026
0.00607319
0.00622035
0.00635213
0.00646895
0.0065712
0.00665927
0.00673355
0.00679442
0.00684228
0.00687748
0.00690041
0.00691144
0.00691093
0.00689925
0.00687676
0.00684381
0.00680078
0.006748
0.00668583
0.00661464
0.00653477
0.00644656
0.00635039
0.00624659
0.00613553
0.00601757
0.00589305
0.00576235
0.00562583
0.00548387
0.00533683
0.00518512
0.00502913
0.00486925
0.00470591
0.00453952
0.00437055
0.00419945
0.00402669
0.00385279
0.00367828
0.00350372
0.00332971
0.0031569
0.00298593
0.00281776
0.00265228
0.00249499
0.00232445
0.00224658
0.00176479
0.00369824
-25.176
-22.6111
-20.6457
-19.4918
-18.4528
-17.4689
-16.6331
-15.9213
-15.2898
-14.722
-14.2096
-13.7433
-13.3154
-12.9203
-12.5534
-12.211
-11.8903
-11.5886
-11.3039
-11.0344
-10.7786
-10.5352
-10.3032
-10.0814
-9.86908
-9.66547
-9.46992
-9.28181
-9.10063
-8.92589
-8.75718
-8.59411
-8.43632
-8.2835
-8.13537
-7.99165
-7.8521
-7.7165
-7.58465
-7.45636
-7.33144
-7.20974
-7.09111
-6.97541
-6.8625
-6.75226
-6.64459
-6.53937
-6.4365
-6.3359
-6.23746
-6.14112
-6.04678
-5.95438
-5.86385
-5.77512
-5.68812
-5.60281
-5.51912
-5.437
-5.35641
-5.27728
-5.19958
-5.12327
-5.04829
-4.97462
-4.90221
-4.83104
-4.76105
-4.69223
-4.62454
-4.55795
-4.49243
-4.42795
-4.36449
-4.30202
-4.24052
-4.17996
-4.12032
-4.06159
-4.00372
-3.94672
-3.89056
-3.83521
-3.78067
-3.72691
-3.67393
-3.62169
-3.57019
-3.51941
-3.46933
-3.41995
-3.37125
-3.32321
-3.27583
-3.22908
-3.18297
-3.13747
-3.09258
-3.04828
-3.00457
-2.96143
-2.91886
-2.87684
-2.83537
-2.79443
-2.75402
-2.71413
-2.67476
-2.63588
-2.5975
-2.55961
-2.5222
-2.48526
-2.44878
-2.41277
-2.37721
-2.34209
-2.30741
-2.27317
-2.23936
-2.20596
-2.17299
-2.14042
-2.10826
-2.0765
-2.04513
-2.01415
-1.98356
-1.95335
-1.92351
-1.89404
-1.86494
-1.8362
-1.80782
-1.7798
-1.75212
-1.72479
-1.69779
-1.67114
-1.64482
-1.61883
-1.59317
-1.56783
-1.5428
-1.5181
-1.4937
-1.46962
-1.44584
-1.42237
-1.39919
-1.37631
-1.35372
-1.33143
-1.30942
-1.2877
-1.26625
-1.24509
-1.2242
-1.20359
-1.18324
-1.16317
-1.14335
-1.1238
-1.10452
-1.08548
-1.06671
-1.04818
-1.02991
-1.01188
-0.994094
-0.976552
-0.959251
-0.942187
-0.925359
-0.908763
-0.892398
-0.876261
-0.86035
-0.844662
-0.829196
-0.813948
-0.798918
-0.784102
-0.769499
-0.755106
-0.740921
-0.726942
-0.713166
-0.699592
-0.686218
-0.673041
-0.660059
-0.64727
-0.634673
-0.622264
-0.610042
-0.598005
-0.586151
-0.574478
-0.562983
-0.551666
-0.540523
-0.529553
-0.518753
-0.508123
-0.497659
-0.487361
-0.477226
-0.467251
-0.457436
-0.447779
-0.438277
-0.428928
-0.419732
-0.410685
-0.401787
-0.393035
-0.384427
-0.375962
-0.367639
-0.359454
-0.351407
-0.343496
-0.335719
-0.328074
-0.32056
-0.313175
-0.305917
-0.298785
-0.291777
-0.284892
-0.278128
-0.271483
-0.264955
-0.258544
-0.252248
-0.246065
-0.239993
-0.234032
-0.228179
-0.222434
-0.216794
-0.211259
-0.205826
-0.200496
-0.195265
-0.190133
-0.185099
-0.18016
-0.175317
-0.170567
-0.165909
-0.161342
-0.156864
-0.152475
-0.148173
-0.143957
-0.139825
-0.135777
-0.131811
-0.127926
-0.124121
-0.120395
-0.116746
-0.113174
-0.109677
-0.106254
-0.102905
-0.0996275
-0.0964211
-0.0932847
-0.0902171
-0.0872174
-0.0842845
-0.0814175
-0.0786153
-0.0758769
-0.0732013
-0.0705877
-0.0680349
-0.0655422
-0.0631084
-0.0607328
-0.0584143
-0.0561522
-0.0539454
-0.0517931
-0.0496944
-0.0476485
-0.0456544
-0.0437114
-0.0418185
-0.039975
-0.0381801
-0.0364329
-0.0347326
-0.0330784
-0.0314696
-0.0299053
-0.0283848
-0.0269073
-0.0254722
-0.0240785
-0.0227257
-0.021413
-0.0201396
-0.0189049
-0.0177081
-0.0165486
-0.0154257
-0.0143387
-0.0132869
-0.0122698
-0.0112865
-0.0103366
-0.00941931
-0.00853406
-0.00768023
-0.00685721
-0.00606438
-0.00530117
-0.00456697
-0.00386122
-0.00318333
-0.00253275
-0.00190892
-0.00131128
-0.000739291
-0.000192423
0.000329856
0.000828067
0.00130273
0.00175434
0.00218341
0.00259043
0.00297589
0.00334026
0.00368404
0.00400767
0.00431163
0.00459638
0.00486235
0.00511001
0.00533978
0.00555209
0.00574739
0.00592608
0.00608859
0.00623532
0.00636669
0.0064831
0.00658494
0.00667261
0.00674649
0.00680697
0.00685444
0.00688926
0.0069118
0.00692245
0.00692157
0.00690951
0.00688665
0.00685334
0.00680993
0.00675679
0.00669426
0.0066227
0.00654246
0.00645389
0.00635735
0.00625319
0.00614176
0.00602342
0.00589853
0.00576745
0.00563054
0.00548819
0.00534076
0.00518864
0.00503222
0.00487191
0.00470812
0.00454128
0.00437183
0.00420022
0.00402694
0.00385249
0.00367739
0.0035022
0.00332752
0.00315398
0.00298223
0.00281314
0.00264693
0.00248752
0.0023204
0.00222022
0.00185544
0.00338528
-21.9658
-21.1651
-19.9266
-18.8782
-17.9822
-17.1487
-16.3997
-15.7385
-15.145
-14.6058
-14.1141
-13.6635
-13.2478
-12.8622
-12.503
-12.167
-11.8514
-11.5541
-11.273
-11.0066
-10.7535
-10.5124
-10.2823
-10.0623
-9.85149
-9.64925
-9.45489
-9.26786
-9.08764
-8.91377
-8.74584
-8.58347
-8.42633
-8.2741
-8.1265
-7.98326
-7.84417
-7.70899
-7.57752
-7.44957
-7.32498
-7.20359
-7.08524
-6.9698
-6.85714
-6.74713
-6.63967
-6.53465
-6.43198
-6.33155
-6.23328
-6.13709
-6.0429
-5.95064
-5.86024
-5.77163
-5.68476
-5.59956
-5.51598
-5.43396
-5.35346
-5.27442
-5.19681
-5.12058
-5.04569
-4.97209
-4.89976
-4.82865
-4.75873
-4.68997
-4.62234
-4.55581
-4.49034
-4.42592
-4.36251
-4.30009
-4.23863
-4.17812
-4.11852
-4.05983
-4.00201
-3.94504
-3.88892
-3.83361
-3.7791
-3.72538
-3.67242
-3.62021
-3.56874
-3.51799
-3.46794
-3.41859
-3.36991
-3.3219
-3.27454
-3.22782
-3.18173
-3.13626
-3.09139
-3.04711
-3.00342
-2.9603
-2.91775
-2.87575
-2.83429
-2.79337
-2.75298
-2.71311
-2.67375
-2.63489
-2.59652
-2.55865
-2.52125
-2.48432
-2.44786
-2.41186
-2.37631
-2.34121
-2.30654
-2.27231
-2.23851
-2.20513
-2.17216
-2.13961
-2.10745
-2.0757
-2.04435
-2.01338
-1.9828
-1.95259
-1.92277
-1.89331
-1.86422
-1.83549
-1.80711
-1.7791
-1.75143
-1.7241
-1.69712
-1.67047
-1.64416
-1.61818
-1.59252
-1.56718
-1.54217
-1.51747
-1.49308
-1.46901
-1.44523
-1.42176
-1.39859
-1.37572
-1.35314
-1.33085
-1.30885
-1.28713
-1.26569
-1.24453
-1.22365
-1.20304
-1.1827
-1.16263
-1.14283
-1.12328
-1.104
-1.08497
-1.0662
-1.04768
-1.02941
-1.01139
-0.993607
-0.976071
-0.958774
-0.941716
-0.924892
-0.908301
-0.89194
-0.875808
-0.859901
-0.844218
-0.828756
-0.813514
-0.798488
-0.783677
-0.769078
-0.754689
-0.740508
-0.726534
-0.712763
-0.699193
-0.685823
-0.67265
-0.659673
-0.646888
-0.634295
-0.62189
-0.609672
-0.59764
-0.58579
-0.57412
-0.56263
-0.551316
-0.540177
-0.529211
-0.518416
-0.50779
-0.49733
-0.487035
-0.476904
-0.466934
-0.457122
-0.447469
-0.43797
-0.428626
-0.419433
-0.41039
-0.401495
-0.392747
-0.384143
-0.375682
-0.367362
-0.359181
-0.351137
-0.343229
-0.335456
-0.327814
-0.320304
-0.312922
-0.305668
-0.298539
-0.291534
-0.284652
-0.277891
-0.271249
-0.264725
-0.258317
-0.252024
-0.245844
-0.239775
-0.233817
-0.227967
-0.222225
-0.216588
-0.211056
-0.205626
-0.200298
-0.19507
-0.189941
-0.18491
-0.179974
-0.175133
-0.170386
-0.16573
-0.161166
-0.156691
-0.152304
-0.148005
-0.143791
-0.139662
-0.135616
-0.131652
-0.12777
-0.123967
-0.120243
-0.116597
-0.113027
-0.109532
-0.106112
-0.102765
-0.0994893
-0.096285
-0.0931507
-0.0900852
-0.0870876
-0.0841568
-0.0812918
-0.0784916
-0.0757551
-0.0730816
-0.0704698
-0.067919
-0.0654282
-0.0629963
-0.0606225
-0.0583059
-0.0560456
-0.0538406
-0.05169
-0.0495931
-0.0475489
-0.0455566
-0.0436152
-0.0417241
-0.0398822
-0.0380889
-0.0363433
-0.0346446
-0.032992
-0.0313847
-0.029822
-0.0283031
-0.0268271
-0.0253934
-0.0240013
-0.0226499
-0.0213386
-0.0200666
-0.0188333
-0.0176379
-0.0164798
-0.0153583
-0.0142726
-0.0132222
-0.0122063
-0.0112243
-0.0102757
-0.00935965
-0.00847564
-0.00762303
-0.00680121
-0.00600957
-0.00524753
-0.00451449
-0.00380988
-0.00313312
-0.00248365
-0.00186092
-0.00126436
-0.000693443
-0.000147629
0.000373611
0.000870797
0.00134444
0.00179506
0.00222315
0.0026292
0.0030137
0.00337713
0.00371997
0.00404269
0.00434574
0.00462959
0.00489469
0.00514147
0.00537038
0.00558185
0.00577631
0.00595417
0.00611587
0.0062618
0.00639237
0.00650799
0.00660906
0.00669595
0.00676908
0.00682881
0.00687553
0.00690961
0.00693143
0.00694135
0.00693975
0.00692698
0.00690341
0.00686939
0.00682528
0.00677144
0.00670822
0.00663596
0.00655503
0.00646577
0.00636853
0.00626367
0.00615154
0.00603249
0.00590688
0.00577507
0.00563744
0.00549433
0.00534614
0.00519324
0.00503603
0.0048749
0.00471026
0.00454254
0.00437218
0.00419962
0.00402534
0.00384983
0.00367362
0.00349725
0.00332129
0.00314637
0.00297313
0.00280238
0.00263438
0.00247257
0.00230407
0.00219555
0.00184323
0.00329941
-20.0896
-19.7261
-18.9393
-18.1343
-17.413
-16.7263
-16.0787
-15.4853
-14.9416
-14.4404
-13.9773
-13.5485
-13.1498
-12.7779
-12.4297
-12.1026
-11.7945
-11.5034
-11.2275
-10.9656
-10.7163
-10.4786
-10.2514
-10.0339
-9.82537
-9.62511
-9.43252
-9.24707
-9.06826
-8.89567
-8.72889
-8.56757
-8.41138
-8.26002
-8.11321
-7.9707
-7.83228
-7.69771
-7.56681
-7.43939
-7.31529
-7.19435
-7.07642
-6.96137
-6.84908
-6.73941
-6.63228
-6.52756
-6.42516
-6.325
-6.22698
-6.13102
-6.03706
-5.94501
-5.85481
-5.76639
-5.67969
-5.59466
-5.51124
-5.42937
-5.34901
-5.27012
-5.19263
-5.11653
-5.04175
-4.96827
-4.89604
-4.82504
-4.75522
-4.68656
-4.61902
-4.55257
-4.48719
-4.42284
-4.35951
-4.29716
-4.23578
-4.17533
-4.1158
-4.05717
-3.99941
-3.94251
-3.88644
-3.83118
-3.77673
-3.72305
-3.67014
-3.61798
-3.56656
-3.51585
-3.46585
-3.41653
-3.3679
-3.31992
-3.2726
-3.22592
-3.17986
-3.13442
-3.08958
-3.04534
-3.00168
-2.95859
-2.91606
-2.87409
-2.83266
-2.79177
-2.75141
-2.71156
-2.67222
-2.63339
-2.59504
-2.55719
-2.51981
-2.48291
-2.44647
-2.41049
-2.37496
-2.33987
-2.30523
-2.27101
-2.23723
-2.20386
-2.17091
-2.13837
-2.10624
-2.0745
-2.04316
-2.01221
-1.98164
-1.95145
-1.92164
-1.89219
-1.86312
-1.8344
-1.80604
-1.77803
-1.75038
-1.72306
-1.69609
-1.66946
-1.64315
-1.61718
-1.59154
-1.56621
-1.54121
-1.51652
-1.49214
-1.46808
-1.44431
-1.42085
-1.39769
-1.37483
-1.35226
-1.32998
-1.30798
-1.28627
-1.26484
-1.2437
-1.22282
-1.20222
-1.18189
-1.16183
-1.14203
-1.12249
-1.10322
-1.0842
-1.06543
-1.04692
-1.02866
-1.01064
-0.99287
-0.975341
-0.958052
-0.941001
-0.924184
-0.9076
-0.891247
-0.875121
-0.859222
-0.843546
-0.828091
-0.812855
-0.797836
-0.783032
-0.768439
-0.754057
-0.739883
-0.725915
-0.712151
-0.698588
-0.685224
-0.672058
-0.659087
-0.646309
-0.633722
-0.621323
-0.609112
-0.597086
-0.585242
-0.573579
-0.562095
-0.550787
-0.539654
-0.528694
-0.517905
-0.507284
-0.496831
-0.486542
-0.476417
-0.466452
-0.456647
-0.446999
-0.437506
-0.428167
-0.41898
-0.409943
-0.401054
-0.392311
-0.383712
-0.375257
-0.366942
-0.358766
-0.350728
-0.342825
-0.335057
-0.327421
-0.319915
-0.312539
-0.305289
-0.298166
-0.291166
-0.284289
-0.277533
-0.270896
-0.264376
-0.257973
-0.251684
-0.245509
-0.239445
-0.233491
-0.227646
-0.221908
-0.216276
-0.210748
-0.205322
-0.199999
-0.194775
-0.18965
-0.184623
-0.179691
-0.174854
-0.170111
-0.165459
-0.160899
-0.156428
-0.152045
-0.147749
-0.143539
-0.139414
-0.135371
-0.131412
-0.127533
-0.123734
-0.120013
-0.11637
-0.112804
-0.109312
-0.105895
-0.102551
-0.0992795
-0.0960785
-0.0929473
-0.089885
-0.0868905
-0.0839628
-0.0811009
-0.0783037
-0.0755703
-0.0728997
-0.0702909
-0.067743
-0.065255
-0.062826
-0.060455
-0.0581412
-0.0558836
-0.0536813
-0.0515335
-0.0494392
-0.0473976
-0.0454079
-0.0434691
-0.0415805
-0.0397412
-0.0379504
-0.0362072
-0.0345109
-0.0328607
-0.0312558
-0.0296954
-0.0281788
-0.0267051
-0.0252737
-0.0238838
-0.0225346
-0.0212255
-0.0199557
-0.0187245
-0.0175312
-0.0163752
-0.0152556
-0.014172
-0.0131236
-0.0121097
-0.0111297
-0.0101829
-0.00926879
-0.00838666
-0.00753589
-0.0067159
-0.00592607
-0.0051658
-0.00443452
-0.00373164
-0.00305659
-0.0024088
-0.00178773
-0.00119281
-0.000623509
-7.92902e-05
0.000440375
0.000936009
0.00140813
0.00185723
0.00228383
0.00268841
0.00307146
0.00343346
0.00377489
0.00409622
0.0043979
0.0046804
0.00494416
0.00518962
0.00541723
0.00562742
0.00582061
0.00599722
0.00615768
0.00630239
0.00643176
0.00654619
0.00664608
0.00673181
0.00680379
0.00686238
0.00690797
0.00694093
0.00696165
0.00697048
0.00696779
0.00695394
0.0069293
0.00689421
0.00684904
0.00679415
0.00672987
0.00665656
0.00657458
0.00648427
0.00638598
0.00628006
0.00616686
0.00604674
0.00592005
0.00578716
0.00564841
0.00550418
0.00535484
0.00520077
0.00504235
0.00487999
0.00471408
0.00454504
0.0043733
0.00419931
0.00402353
0.00384644
0.00366856
0.00349041
0.00331255
0.00313559
0.00296014
0.00278695
0.00261629
0.00245132
0.00227988
0.00216505
0.00181489
0.00322858
-18.6903
-18.4939
-18.0042
-17.4165
-16.839
-16.2701
-15.7158
-15.1911
-14.6998
-14.2396
-13.8086
-13.405
-13.0267
-12.6711
-12.3363
-12.0204
-11.7215
-11.4381
-11.1689
-10.9127
-10.6683
-10.4348
-10.2113
-9.99704
-9.79138
-9.59367
-9.40335
-9.21993
-9.04295
-8.87201
-8.70672
-8.54675
-8.39179
-8.24155
-8.09577
-7.95422
-7.81666
-7.68289
-7.55273
-7.426
-7.30253
-7.18218
-7.06481
-6.95027
-6.83845
-6.72924
-6.62252
-6.51819
-6.41617
-6.31635
-6.21866
-6.12301
-6.02934
-5.93756
-5.84762
-5.75945
-5.67298
-5.58817
-5.50496
-5.4233
-5.34313
-5.26441
-5.1871
-5.11116
-5.03654
-4.96321
-4.89112
-4.82026
-4.75057
-4.68203
-4.61461
-4.54828
-4.483
-4.41876
-4.35553
-4.29328
-4.23199
-4.17164
-4.1122
-4.05364
-3.99596
-3.93914
-3.88314
-3.82796
-3.77357
-3.71997
-3.66712
-3.61502
-3.56366
-3.51301
-3.46306
-3.4138
-3.36522
-3.31729
-3.27002
-3.22338
-3.17737
-3.13198
-3.08718
-3.04298
-2.99936
-2.95631
-2.91383
-2.87189
-2.8305
-2.78964
-2.74931
-2.7095
-2.67019
-2.63139
-2.59307
-2.55525
-2.5179
-2.48102
-2.44461
-2.40866
-2.37315
-2.33809
-2.30347
-2.26928
-2.23552
-2.20218
-2.16925
-2.13673
-2.10462
-2.07291
-2.04158
-2.01065
-1.9801
-1.94993
-1.92014
-1.89071
-1.86165
-1.83295
-1.80461
-1.77662
-1.74898
-1.72168
-1.69472
-1.6681
-1.64182
-1.61586
-1.59023
-1.56492
-1.53993
-1.51525
-1.49089
-1.46683
-1.44309
-1.41964
-1.39649
-1.37364
-1.35108
-1.32881
-1.30683
-1.28513
-1.26371
-1.24258
-1.22171
-1.20112
-1.1808
-1.16075
-1.14096
-1.12144
-1.10217
-1.08316
-1.06441
-1.04591
-1.02765
-1.00965
-0.991887
-0.974368
-0.957089
-0.940047
-0.92324
-0.906666
-0.890322
-0.874206
-0.858315
-0.842648
-0.827203
-0.811976
-0.796966
-0.782171
-0.767588
-0.753215
-0.739049
-0.72509
-0.711334
-0.69778
-0.684425
-0.671267
-0.658305
-0.645535
-0.632957
-0.620567
-0.608364
-0.596346
-0.584511
-0.572856
-0.56138
-0.55008
-0.538956
-0.528004
-0.517223
-0.50661
-0.496165
-0.485884
-0.475766
-0.465809
-0.456012
-0.446371
-0.436887
-0.427555
-0.418376
-0.409346
-0.400464
-0.391728
-0.383137
-0.374689
-0.366381
-0.358213
-0.350182
-0.342286
-0.334525
-0.326895
-0.319397
-0.312027
-0.304784
-0.297668
-0.290675
-0.283804
-0.277054
-0.270424
-0.263911
-0.257514
-0.251231
-0.245062
-0.239004
-0.233056
-0.227217
-0.221485
-0.215859
-0.210336
-0.204917
-0.199599
-0.194381
-0.189262
-0.18424
-0.179313
-0.174482
-0.169744
-0.165098
-0.160542
-0.156077
-0.151699
-0.147408
-0.143203
-0.139083
-0.135045
-0.13109
-0.127216
-0.123422
-0.119706
-0.116068
-0.112506
-0.109019
-0.105606
-0.102267
-0.0989993
-0.0958026
-0.0926758
-0.0896178
-0.0866275
-0.0837039
-0.080846
-0.0780529
-0.0753235
-0.0726569
-0.070052
-0.067508
-0.0650238
-0.0625986
-0.0602314
-0.0579213
-0.0556673
-0.0534687
-0.0513244
-0.0492337
-0.0471956
-0.0452094
-0.043274
-0.0413888
-0.0395528
-0.0377653
-0.0360254
-0.0343324
-0.0326854
-0.0310836
-0.0295264
-0.0280128
-0.0265422
-0.0251138
-0.0237269
-0.0223806
-0.0210744
-0.0198075
-0.0185791
-0.0173887
-0.0162354
-0.0151186
-0.0140377
-0.0129919
-0.0119806
-0.0110032
-0.010059
-0.00914744
-0.0082678
-0.00741951
-0.00660195
-0.00581452
-0.00505663
-0.00432769
-0.00362712
-0.00295435
-0.00230881
-0.00168995
-0.00109722
-0.000530083
1.2006e-05
0.000529571
0.00102313
0.0014932
0.00194029
0.0023649
0.00276752
0.00314864
0.00350873
0.00384828
0.00416775
0.0044676
0.00474829
0.00501027
0.00525398
0.00547985
0.00568832
0.00587982
0.00605477
0.00621358
0.00635666
0.00648442
0.00659726
0.00669558
0.00677976
0.0068502
0.00690727
0.00695136
0.00698284
0.00700208
0.00700944
0.0070053
0.00699002
0.00696394
0.00692744
0.00688086
0.00682455
0.00675887
0.00668417
0.00660078
0.00650907
0.00640938
0.00630205
0.00618744
0.00606589
0.00593777
0.00580341
0.00566319
0.00551746
0.0053666
0.00521097
0.00505096
0.00488695
0.00471935
0.00454856
0.004375
0.00419912
0.00402135
0.00384218
0.0036621
0.00348161
0.00330126
0.00312162
0.00294328
0.00276695
0.00259287
0.00242403
0.00224874
0.00212772
0.00177849
0.00314425
-17.6009
-17.485
-17.1633
-16.7291
-16.2679
-15.7981
-15.3275
-14.869
-14.4297
-14.0114
-13.6142
-13.238
-12.8819
-12.5447
-12.2252
-11.9219
-11.6338
-11.3595
-11.0981
-10.8486
-10.61
-10.3815
-10.1624
-9.9521
-9.74989
-9.55524
-9.36767
-9.1867
-9.01194
-8.84299
-8.67951
-8.52119
-8.36772
-8.21885
-8.07433
-7.93392
-7.79742
-7.66464
-7.53538
-7.40949
-7.2868
-7.16717
-7.05047
-6.93656
-6.82533
-6.71666
-6.61046
-6.50661
-6.40504
-6.30565
-6.20836
-6.1131
-6.01978
-5.92834
-5.83872
-5.75085
-5.66467
-5.58013
-5.49718
-5.41576
-5.33583
-5.25733
-5.18024
-5.1045
-5.03007
-4.95692
-4.88501
-4.81431
-4.74479
-4.6764
-4.60913
-4.54294
-4.4778
-4.41369
-4.35059
-4.28846
-4.22728
-4.16704
-4.1077
-4.04926
-3.99168
-3.93494
-3.87904
-3.82394
-3.76964
-3.71612
-3.66336
-3.61134
-3.56004
-3.50947
-3.45959
-3.4104
-3.36188
-3.31402
-3.2668
-3.22023
-3.17427
-3.12893
-3.08419
-3.04004
-2.99647
-2.95347
-2.91103
-2.86914
-2.8278
-2.78698
-2.7467
-2.70692
-2.66766
-2.62889
-2.59062
-2.55283
-2.51552
-2.47867
-2.4423
-2.40637
-2.3709
-2.33587
-2.30128
-2.26712
-2.23339
-2.20008
-2.16718
-2.13469
-2.1026
-2.07091
-2.03961
-2.0087
-1.97818
-1.94803
-1.91826
-1.88886
-1.85982
-1.83114
-1.80282
-1.77485
-1.74723
-1.71995
-1.69301
-1.66641
-1.64014
-1.6142
-1.58859
-1.5633
-1.53833
-1.51367
-1.48932
-1.46528
-1.44155
-1.41812
-1.39499
-1.37215
-1.34961
-1.32735
-1.30538
-1.2837
-1.2623
-1.24117
-1.22033
-1.19975
-1.17944
-1.15941
-1.13963
-1.12012
-1.10087
-1.08187
-1.06313
-1.04464
-1.0264
-1.00841
-0.990657
-0.97315
-0.955883
-0.938853
-0.922058
-0.905495
-0.889163
-0.873059
-0.85718
-0.841525
-0.826091
-0.810876
-0.795877
-0.781093
-0.766521
-0.752159
-0.738005
-0.724057
-0.710312
-0.696769
-0.683425
-0.670278
-0.657326
-0.644567
-0.631999
-0.61962
-0.607428
-0.59542
-0.583595
-0.571951
-0.560485
-0.549196
-0.538081
-0.527139
-0.516368
-0.505766
-0.49533
-0.485059
-0.474951
-0.465004
-0.455216
-0.445586
-0.43611
-0.426789
-0.417618
-0.408598
-0.399725
-0.390999
-0.382417
-0.373978
-0.365679
-0.35752
-0.349497
-0.341611
-0.333858
-0.326237
-0.318747
-0.311386
-0.304152
-0.297043
-0.290059
-0.283196
-0.276455
-0.269832
-0.263327
-0.256938
-0.250664
-0.244502
-0.238452
-0.232512
-0.22668
-0.220955
-0.215336
-0.209821
-0.204409
-0.199098
-0.193887
-0.188775
-0.18376
-0.17884
-0.174016
-0.169284
-0.164645
-0.160096
-0.155637
-0.151265
-0.146981
-0.142782
-0.138668
-0.134637
-0.130688
-0.126819
-0.123031
-0.119321
-0.115689
-0.112132
-0.108651
-0.105244
-0.10191
-0.0986483
-0.0954571
-0.0923356
-0.0892828
-0.0862978
-0.0833794
-0.0805267
-0.0777387
-0.0750143
-0.0723526
-0.0697527
-0.0672135
-0.0647341
-0.0623137
-0.0599511
-0.0576457
-0.0553963
-0.0532022
-0.0510625
-0.0489762
-0.0469425
-0.0449606
-0.0430295
-0.0411485
-0.0393168
-0.0375334
-0.0357976
-0.0341086
-0.0324656
-0.0308678
-0.0293145
-0.0278048
-0.026338
-0.0249134
-0.0235302
-0.0221876
-0.0208851
-0.0196217
-0.0183969
-0.01721
-0.0160602
-0.0149468
-0.0138692
-0.0128268
-0.0118188
-0.0108447
-0.00990373
-0.00899531
-0.00811881
-0.0072736
-0.0064591
-0.00567468
-0.00491976
-0.00419375
-0.00349607
-0.00282615
-0.00218343
-0.00156735
-0.000977367
-0.00041293
0.000126492
0.000641426
0.00113239
0.0015999
0.00204447
0.00246659
0.00286675
0.00324544
0.00360315
0.00394034
0.00425749
0.00455505
0.00483347
0.00509321
0.00533472
0.00555842
0.00576475
0.00595413
0.00612699
0.00628373
0.00642478
0.00655052
0.00666138
0.00675773
0.00683997
0.00690848
0.00696366
0.00700586
0.00703548
0.00705287
0.00705841
0.00705245
0.00703536
0.0070075
0.00696922
0.00692087
0.00686281
0.00679537
0.00671891
0.00663378
0.00654032
0.00643887
0.00632979
0.00621341
0.00609008
0.00596016
0.00582399
0.00568193
0.00553433
0.00538157
0.005224
0.005062
0.00489595
0.00472624
0.00455328
0.00437747
0.00419923
0.00401901
0.00383726
0.00365446
0.00347109
0.00328767
0.00310475
0.00292289
0.00274275
0.00256455
0.00239114
0.00221125
0.00208348
0.00173481
0.0030452
-16.7111
-16.6341
-16.4089
-16.0826
-15.715
-15.3274
-14.9289
-14.5308
-14.1411
-13.7636
-13.4004
-13.0522
-12.7195
-12.4018
-12.0986
-11.8092
-11.5329
-11.2688
-11.0161
-10.7741
-10.5421
-10.3194
-10.1054
-9.89951
-9.70127
-9.51017
-9.32577
-9.14765
-8.97545
-8.80883
-8.64745
-8.49105
-8.33933
-8.19206
-8.049
-7.90994
-7.77468
-7.64304
-7.51485
-7.38994
-7.26816
-7.14938
-7.03347
-6.9203
-6.80976
-6.70174
-6.59614
-6.49287
-6.39183
-6.29295
-6.19613
-6.10131
-6.00842
-5.91738
-5.82814
-5.74062
-5.65479
-5.57057
-5.48792
-5.40679
-5.32714
-5.24891
-5.17206
-5.09656
-5.02236
-4.94943
-4.87773
-4.80723
-4.7379
-4.66969
-4.6026
-4.53657
-4.4716
-4.40765
-4.34469
-4.2827
-4.22166
-4.16155
-4.10234
-4.04402
-3.98655
-3.92993
-3.87414
-3.81915
-3.76495
-3.71153
-3.65886
-3.60693
-3.55572
-3.50523
-3.45544
-3.40632
-3.35788
-3.3101
-3.26296
-3.21645
-3.17056
-3.12529
-3.08061
-3.03652
-2.99301
-2.95007
-2.90769
-2.86586
-2.82456
-2.7838
-2.74356
-2.70384
-2.66462
-2.6259
-2.58767
-2.54993
-2.51266
-2.47586
-2.43952
-2.40364
-2.3682
-2.33321
-2.29866
-2.26453
-2.23084
-2.19756
-2.16469
-2.13223
-2.10017
-2.06851
-2.03725
-2.00637
-1.97587
-1.94575
-1.91601
-1.88663
-1.85762
-1.82897
-1.80067
-1.77272
-1.74513
-1.71787
-1.69096
-1.66438
-1.63814
-1.61222
-1.58663
-1.56136
-1.5364
-1.51176
-1.48744
-1.46342
-1.43971
-1.41629
-1.39318
-1.37036
-1.34784
-1.3256
-1.30365
-1.28198
-1.2606
-1.23949
-1.21866
-1.1981
-1.17781
-1.15779
-1.13803
-1.11853
-1.0993
-1.08032
-1.06159
-1.04312
-1.02489
-1.00691
-0.989178
-0.971686
-0.954433
-0.937418
-0.920637
-0.904089
-0.887771
-0.871681
-0.855816
-0.840175
-0.824754
-0.809553
-0.794568
-0.779797
-0.765239
-0.75089
-0.736749
-0.722814
-0.709083
-0.695552
-0.682221
-0.669088
-0.656149
-0.643403
-0.630847
-0.618481
-0.606301
-0.594306
-0.582494
-0.570862
-0.559408
-0.548131
-0.537029
-0.526099
-0.51534
-0.50475
-0.494326
-0.484067
-0.473971
-0.464036
-0.45426
-0.444641
-0.435177
-0.425866
-0.416707
-0.407698
-0.398837
-0.390122
-0.381551
-0.373122
-0.364835
-0.356686
-0.348674
-0.340798
-0.333056
-0.325446
-0.317966
-0.310615
-0.303391
-0.296293
-0.289318
-0.282465
-0.275733
-0.269121
-0.262625
-0.256246
-0.24998
-0.243828
-0.237787
-0.231856
-0.226034
-0.220318
-0.214708
-0.209201
-0.203798
-0.198495
-0.193293
-0.188189
-0.183182
-0.178271
-0.173455
-0.168731
-0.1641
-0.159559
-0.155107
-0.150743
-0.146467
-0.142275
-0.138169
-0.134145
-0.130203
-0.126342
-0.122561
-0.118858
-0.115232
-0.111683
-0.108209
-0.104809
-0.101481
-0.0982259
-0.0950412
-0.0919262
-0.0888798
-0.0859011
-0.0829889
-0.0801424
-0.0773604
-0.0746421
-0.0719864
-0.0693924
-0.066859
-0.0643855
-0.0619707
-0.0596138
-0.0573139
-0.0550701
-0.0528815
-0.0507471
-0.0486662
-0.0466378
-0.0446611
-0.0427352
-0.0408593
-0.0390326
-0.0372542
-0.0355234
-0.0338393
-0.0322011
-0.0306081
-0.0290594
-0.0275544
-0.0260922
-0.0246721
-0.0232934
-0.0219553
-0.0206571
-0.0193981
-0.0181776
-0.0169948
-0.0158492
-0.01474
-0.0136665
-0.0126281
-0.0116241
-0.0106538
-0.00971673
-0.00881212
-0.00793939
-0.0070979
-0.00628706
-0.00550627
-0.00475492
-0.00403244
-0.00333824
-0.00267176
-0.00203243
-0.00141969
-0.000833002
-0.000271818
0.000264396
0.000776165
0.00126401
0.00172844
0.00216997
0.00258909
0.0029863
0.00336208
0.00371691
0.00405127
0.00436562
0.00466042
0.00493612
0.00519318
0.00543204
0.00565312
0.00585687
0.00604371
0.00621405
0.00636832
0.00650691
0.00663024
0.0067387
0.00683269
0.00691259
0.0069788
0.00703168
0.00707163
0.007099
0.00711418
0.00711752
0.00710938
0.00709013
0.00706012
0.00701971
0.00696923
0.00690905
0.00683951
0.00676095
0.00667372
0.00657816
0.00647461
0.00636341
0.00624491
0.00611945
0.00598738
0.00584904
0.00570478
0.00555495
0.00539991
0.00524002
0.00507564
0.00490716
0.00473495
0.00455939
0.00438089
0.00419987
0.00401673
0.00383192
0.00364589
0.00345912
0.00327209
0.00308531
0.00289932
0.00271474
0.00253176
0.00235311
0.00216794
0.00203258
0.00168441
0.00293116
-15.9562
-15.9005
-15.7349
-15.4844
-15.1894
-14.8682
-14.5303
-14.1853
-13.8411
-13.5024
-13.172
-12.8517
-12.5426
-12.2449
-11.9589
-11.6841
-11.4204
-11.1671
-10.9239
-10.6901
-10.4653
-10.249
-10.0406
-9.83972
-9.64591
-9.45878
-9.27794
-9.10302
-8.93372
-8.76971
-8.61072
-8.45649
-8.30675
-8.1613
-8.01991
-7.88238
-7.74854
-7.61821
-7.49122
-7.36743
-7.2467
-7.12889
-7.01389
-6.90156
-6.79181
-6.68453
-6.57963
-6.47701
-6.37658
-6.27828
-6.182
-6.0877
-5.99529
-5.90471
-5.8159
-5.7288
-5.64335
-5.55951
-5.47721
-5.39641
-5.31708
-5.23915
-5.16259
-5.08737
-5.01343
-4.94075
-4.8693
-4.79902
-4.72991
-4.66192
-4.59502
-4.52919
-4.4644
-4.40063
-4.33784
-4.27602
-4.21514
-4.15518
-4.09612
-4.03793
-3.98061
-3.92412
-3.86845
-3.81358
-3.7595
-3.70619
-3.65363
-3.6018
-3.5507
-3.50031
-3.45061
-3.40159
-3.35324
-3.30554
-3.25848
-3.21206
-3.16625
-3.12105
-3.07645
-3.03243
-2.98899
-2.94612
-2.9038
-2.86203
-2.8208
-2.7801
-2.73992
-2.70025
-2.66109
-2.62242
-2.58424
-2.54655
-2.50933
-2.47258
-2.43628
-2.40045
-2.36506
-2.33011
-2.2956
-2.26152
-2.22786
-2.19462
-2.16179
-2.12937
-2.09735
-2.06572
-2.03449
-2.00365
-1.97318
-1.9431
-1.91338
-1.88404
-1.85505
-1.82643
-1.79816
-1.77025
-1.74268
-1.71545
-1.68856
-1.66201
-1.63579
-1.6099
-1.58433
-1.55909
-1.53416
-1.50954
-1.48524
-1.46124
-1.43755
-1.41416
-1.39107
-1.36827
-1.34577
-1.32355
-1.30162
-1.27998
-1.25861
-1.23753
-1.21671
-1.19617
-1.1759
-1.1559
-1.13616
-1.11668
-1.09746
-1.0785
-1.05979
-1.04134
-1.02313
-1.00517
-0.98745