/*--------------------------------*- C++ -*----------------------------------*\
| =========                 |                                                 |
| \\      /  F ield         | OpenFOAM: The Open Source CFD Toolbox           |
|  \\    /   O peration     | Version:  2506                                  |
|   \\  /    A nd           | Website:  www.openfoam.com                      |
|    \\/     M anipulation  |                                                 |
\*---------------------------------------------------------------------------*/
FoamFile
{
    version     2.0;
    format      ascii;
    arch        "LSB;label=32;scalar=64";
    class       surfaceScalarField;
    location    "1000";
    object      phi;
}
// * * * * * * * * * * * * * * * * * * * * * * * * * * * * * * * * * * * * * //

dimensions      [0 3 -1 0 0 0 0];

oriented        oriented;

internalField   nonuniform List<scalar> 
266147
(
0.00237347
0.000117012
0.0023151
5.83705e-05
0.00227865
3.64522e-05
0.00225492
2.37331e-05
0.0022381
1.68151e-05
0.00222486
1.32436e-05
0.00221383
1.10297e-05
0.00220438
9.44872e-06
0.0021961
8.28098e-06
0.00218871
7.38674e-06
0.00218204
6.67229e-06
0.00217596
6.08592e-06
0.00217036
5.59607e-06
0.00216518
5.18036e-06
0.00216036
4.82273e-06
0.00215584
4.51162e-06
0.00215161
4.23839e-06
0.00214761
3.99643e-06
0.00214383
3.78057e-06
0.00214024
3.58674e-06
0.00213683
3.41167e-06
0.00213358
3.25272e-06
0.00213047
3.10771e-06
0.0021275
2.97485e-06
0.00212464
2.85265e-06
0.0021219
2.73982e-06
0.00211927
2.63532e-06
0.00211673
2.53822e-06
0.00211428
2.44775e-06
0.00211192
2.36322e-06
0.00210963
2.28405e-06
0.00210742
2.20973e-06
0.00210528
2.13981e-06
0.00210321
2.0739e-06
0.0021012
2.01165e-06
0.00209925
1.95275e-06
0.00209735
1.89692e-06
0.00209551
1.84391e-06
0.00209371
1.79352e-06
0.00209197
1.74554e-06
0.00209027
1.69979e-06
0.00208861
1.65611e-06
0.002087
1.61436e-06
0.00208542
1.57441e-06
0.00208389
1.53613e-06
0.00208239
1.49941e-06
0.00208092
1.46416e-06
0.00207949
1.43027e-06
0.00207809
1.39768e-06
0.00207673
1.3663e-06
0.00207539
1.33605e-06
0.00207409
1.30688e-06
0.00207281
1.27872e-06
0.00207155
1.25151e-06
0.00207033
1.22521e-06
0.00206913
1.19977e-06
0.00206795
1.17513e-06
0.0020668
1.15126e-06
0.00206568
1.12812e-06
0.00206457
1.10568e-06
0.00206349
1.08389e-06
0.00206242
1.06273e-06
0.00206138
1.04216e-06
0.00206036
1.02217e-06
0.00205936
1.00272e-06
0.00205837
9.83783e-07
0.00205741
9.65344e-07
0.00205646
9.47377e-07
0.00205553
9.29863e-07
0.00205462
9.12782e-07
0.00205372
8.96116e-07
0.00205284
8.79847e-07
0.00205198
8.63959e-07
0.00205113
8.48436e-07
0.0020503
8.33265e-07
0.00204948
8.1843e-07
0.00204867
8.03919e-07
0.00204788
7.8972e-07
0.00204711
7.7582e-07
0.00204635
7.62208e-07
0.0020456
7.48873e-07
0.00204486
7.35806e-07
0.00204414
7.22995e-07
0.00204343
7.10433e-07
0.00204273
6.9811e-07
0.00204204
6.86018e-07
0.00204137
6.74148e-07
0.00204071
6.62494e-07
0.00204006
6.51047e-07
0.00203942
6.39801e-07
0.00203879
6.28748e-07
0.00203817
6.17883e-07
0.00203756
6.072e-07
0.00203696
5.96692e-07
0.00203638
5.86353e-07
0.0020358
5.76179e-07
0.00203524
5.66164e-07
0.00203468
5.56303e-07
0.00203413
5.46591e-07
0.0020336
5.37024e-07
0.00203307
5.27597e-07
0.00203255
5.18306e-07
0.00203204
5.09147e-07
0.00203154
5.00116e-07
0.00203105
4.91209e-07
0.00203057
4.82422e-07
0.00203009
4.73753e-07
0.00202963
4.65197e-07
0.00202917
4.56751e-07
0.00202872
4.48413e-07
0.00202828
4.40179e-07
0.00202785
4.32046e-07
0.00202743
4.24012e-07
0.00202701
4.16074e-07
0.0020266
4.08229e-07
0.0020262
4.00475e-07
0.00202581
3.9281e-07
0.00202542
3.8523e-07
0.00202505
3.77735e-07
0.00202468
3.70321e-07
0.00202431
3.62987e-07
0.00202396
3.55731e-07
0.00202361
3.4855e-07
0.00202327
3.41444e-07
0.00202293
3.3441e-07
0.00202261
3.27446e-07
0.00202229
3.20551e-07
0.00202197
3.13724e-07
0.00202166
3.06963e-07
0.00202136
3.00266e-07
0.00202107
2.93632e-07
0.00202078
2.87059e-07
0.0020205
2.80547e-07
0.00202023
2.74095e-07
0.00201996
2.677e-07
0.0020197
2.61363e-07
0.00201944
2.55081e-07
0.0020192
2.48854e-07
0.00201895
2.42681e-07
0.00201872
2.36561e-07
0.00201849
2.30493e-07
0.00201826
2.24476e-07
0.00201804
2.1851e-07
0.00201783
2.12594e-07
0.00201762
2.06726e-07
0.00201742
2.00907e-07
0.00201723
1.95135e-07
0.00201704
1.89411e-07
0.00201685
1.83733e-07
0.00201668
1.781e-07
0.0020165
1.72514e-07
0.00201634
1.66972e-07
0.00201618
1.61475e-07
0.00201602
1.56022e-07
0.00201587
1.50613e-07
0.00201572
1.45247e-07
0.00201558
1.39925e-07
0.00201545
1.34645e-07
0.00201532
1.29407e-07
0.0020152
1.24213e-07
0.00201508
1.1906e-07
0.00201496
1.13949e-07
0.00201485
1.08879e-07
0.00201475
1.03852e-07
0.00201465
9.88654e-08
0.00201456
9.39204e-08
0.00201447
8.90167e-08
0.00201438
8.41541e-08
0.0020143
7.93326e-08
0.00201423
7.45521e-08
0.00201416
6.98125e-08
0.00201409
6.5114e-08
0.00201403
6.04564e-08
0.00201398
5.58397e-08
0.00201393
5.1264e-08
0.00201388
4.67293e-08
0.00201384
4.22355e-08
0.0020138
3.77829e-08
0.00201377
3.33712e-08
0.00201374
2.90007e-08
0.00201371
2.46714e-08
0.00201369
2.03833e-08
0.00201368
1.61364e-08
0.00201367
1.19309e-08
0.00201366
7.76673e-09
0.00201365
3.64402e-09
0.00201365
-4.37185e-10
0.00201366
-4.47684e-09
0.00201367
-8.47489e-09
0.00201368
-1.24313e-08
0.0020137
-1.6346e-08
0.00201372
-2.02189e-08
0.00201374
-2.405e-08
0.00201377
-2.78393e-08
0.0020138
-3.15868e-08
0.00201383
-3.52923e-08
0.00201387
-3.8956e-08
0.00201392
-4.25778e-08
0.00201396
-4.61576e-08
0.00201401
-4.96956e-08
0.00201407
-5.31917e-08
0.00201412
-5.66459e-08
0.00201418
-6.00583e-08
0.00201425
-6.34289e-08
0.00201431
-6.67578e-08
0.00201438
-7.0045e-08
0.00201446
-7.32906e-08
0.00201453
-7.64946e-08
0.00201461
-7.96573e-08
0.00201469
-8.27786e-08
0.00201478
-8.58586e-08
0.00201487
-8.88976e-08
0.00201496
-9.18956e-08
0.00201506
-9.48528e-08
0.00201515
-9.77693e-08
0.00201525
-1.00645e-07
0.00201536
-1.03481e-07
0.00201546
-1.06276e-07
0.00201557
-1.09032e-07
0.00201569
-1.11747e-07
0.0020158
-1.14423e-07
0.00201592
-1.1706e-07
0.00201604
-1.19658e-07
0.00201616
-1.22216e-07
0.00201628
-1.24736e-07
0.00201641
-1.27217e-07
0.00201654
-1.29661e-07
0.00201667
-1.32066e-07
0.00201681
-1.34434e-07
0.00201694
-1.36764e-07
0.00201708
-1.39057e-07
0.00201722
-1.41313e-07
0.00201737
-1.43533e-07
0.00201751
-1.45716e-07
0.00201766
-1.47863e-07
0.00201781
-1.49975e-07
0.00201796
-1.52051e-07
0.00201812
-1.54093e-07
0.00201827
-1.56099e-07
0.00201843
-1.58071e-07
0.00201859
-1.60009e-07
0.00201875
-1.61913e-07
0.00201892
-1.63783e-07
0.00201908
-1.65621e-07
0.00201925
-1.67425e-07
0.00201942
-1.69197e-07
0.00201959
-1.70936e-07
0.00201976
-1.72644e-07
0.00201994
-1.7432e-07
0.00202011
-1.75964e-07
0.00202029
-1.77578e-07
0.00202047
-1.79161e-07
0.00202065
-1.80713e-07
0.00202083
-1.82236e-07
0.00202102
-1.83729e-07
0.0020212
-1.85192e-07
0.00202139
-1.86626e-07
0.00202158
-1.88031e-07
0.00202177
-1.89408e-07
0.00202196
-1.90757e-07
0.00202215
-1.92077e-07
0.00202234
-1.9337e-07
0.00202254
-1.94636e-07
0.00202273
-1.95874e-07
0.00202293
-1.97086e-07
0.00202313
-1.98271e-07
0.00202333
-1.99431e-07
0.00202353
-2.00564e-07
0.00202373
-2.01671e-07
0.00202393
-2.02754e-07
0.00202414
-2.03811e-07
0.00202434
-2.04843e-07
0.00202455
-2.05851e-07
0.00202475
-2.06834e-07
0.00202496
-2.07794e-07
0.00202517
-2.08729e-07
0.00202538
-2.09641e-07
0.00202559
-2.1053e-07
0.0020258
-2.11396e-07
0.00202601
-2.12239e-07
0.00202623
-2.1306e-07
0.00202644
-2.13858e-07
0.00202666
-2.14635e-07
0.00202687
-2.1539e-07
0.00202709
-2.16123e-07
0.0020273
-2.16835e-07
0.00202752
-2.17525e-07
0.00202774
-2.18195e-07
0.00202796
-2.18845e-07
0.00202818
-2.19474e-07
0.0020284
-2.20083e-07
0.00202862
-2.20672e-07
0.00202884
-2.21242e-07
0.00202906
-2.21792e-07
0.00202928
-2.22323e-07
0.00202951
-2.22835e-07
0.00202973
-2.23328e-07
0.00202995
-2.23802e-07
0.00203018
-2.24259e-07
0.0020304
-2.24697e-07
0.00203063
-2.25117e-07
0.00203085
-2.2552e-07
0.00203108
-2.25905e-07
0.00203131
-2.26274e-07
0.00203153
-2.26625e-07
0.00203176
-2.26959e-07
0.00203199
-2.27277e-07
0.00203221
-2.27578e-07
0.00203244
-2.27863e-07
0.00203267
-2.28133e-07
0.0020329
-2.28386e-07
0.00203313
-2.28624e-07
0.00203336
-2.28847e-07
0.00203358
-2.29055e-07
0.00203381
-2.29247e-07
0.00203404
-2.29425e-07
0.00203427
-2.29589e-07
0.0020345
-2.29738e-07
0.00203473
-2.29873e-07
0.00203496
-2.29994e-07
0.00203519
-2.30101e-07
0.00203542
-2.30195e-07
0.00203565
-2.30276e-07
0.00203588
-2.30343e-07
0.00203611
-2.30398e-07
0.00203634
-2.3044e-07
0.00203657
-2.30469e-07
0.00203681
-2.30486e-07
0.00203704
-2.3049e-07
0.00203727
-2.30483e-07
0.0020375
-2.30463e-07
0.00203773
-2.30433e-07
0.00203796
-2.3039e-07
0.00203819
-2.30336e-07
0.00203842
-2.30271e-07
0.00203865
-2.30196e-07
0.00203888
-2.30109e-07
0.00203911
-2.30012e-07
0.00203934
-2.29904e-07
0.00203957
-2.29786e-07
0.0020398
-2.29657e-07
0.00204003
-2.29519e-07
0.00204026
-2.29371e-07
0.00204049
-2.29213e-07
0.00204072
-2.29046e-07
0.00204094
-2.28869e-07
0.00204117
-2.28682e-07
0.0020414
-2.28487e-07
0.00204163
-2.28283e-07
0.00204186
-2.28069e-07
0.00204209
-2.27847e-07
0.00204231
-2.27616e-07
0.00204254
-2.27377e-07
0.00204277
-2.27129e-07
0.00204299
-2.26873e-07
0.00204322
-2.26608e-07
0.00204345
-2.26335e-07
0.00204367
-2.26054e-07
0.0020439
-2.25766e-07
0.00204412
-2.25469e-07
0.00204435
-2.25164e-07
0.00204457
-2.24852e-07
0.0020448
-2.24531e-07
0.00204502
-2.24203e-07
0.00204525
-2.23867e-07
0.00204547
-2.23524e-07
0.00204569
-2.23173e-07
0.00204592
-2.22814e-07
0.00204614
-2.22447e-07
0.00204636
-2.22073e-07
0.00204658
-2.21691e-07
0.0020468
-2.21301e-07
0.00204703
-2.20903e-07
0.00204725
-2.20497e-07
0.00204747
-2.20083e-07
0.00204769
-2.19661e-07
0.0020479
-2.1923e-07
0.00204812
-2.18791e-07
0.00204834
-2.18342e-07
0.00204856
-2.17885e-07
0.00204878
-2.17418e-07
0.00204899
-2.16941e-07
0.00204921
-2.16454e-07
0.00204943
-2.15957e-07
0.00204964
-2.15448e-07
0.00204986
-2.14927e-07
0.00205007
-2.14394e-07
0.00205028
-2.13848e-07
0.0020505
-2.13287e-07
0.00205071
-2.12712e-07
0.00205092
-2.12119e-07
0.00205113
-2.11509e-07
0.00205135
-2.10879e-07
0.00205156
-2.10227e-07
0.00205177
-2.09553e-07
0.00205197
-2.08837e-07
0.00205218
-2.0815e-07
0.00205239
-2.07148e-07
0.0020526
-2.07429e-07
-2.01672e-07
0.00243699
0.000170511
0.00238645
0.000108911
0.00234549
7.74065e-05
0.00231243
5.67991e-05
0.00228645
4.27953e-05
0.00226591
3.37841e-05
0.00224923
2.77074e-05
0.00223535
2.33225e-05
0.00222357
2.00657e-05
0.00221337
1.75904e-05
0.00220439
1.56515e-05
0.00219638
1.40926e-05
0.00218916
1.28143e-05
0.00218259
1.17481e-05
0.00217657
1.08453e-05
0.00217101
1.00709e-05
0.00216585
9.39946e-06
0.00216104
8.81154e-06
0.00215652
8.29241e-06
0.00215228
7.83057e-06
0.00214828
7.41695e-06
0.00214448
7.04429e-06
0.00214088
6.70672e-06
0.00213746
6.39944e-06
0.00213419
6.11849e-06
0.00213107
5.86057e-06
0.00212809
5.6229e-06
0.00212522
5.40313e-06
0.00212247
5.19928e-06
0.00211982
5.00964e-06
0.00211727
4.83272e-06
0.00211482
4.66726e-06
0.00211244
4.51215e-06
0.00211015
4.36641e-06
0.00210793
4.22919e-06
0.00210579
4.09973e-06
0.00210371
3.97738e-06
0.00210169
3.86154e-06
0.00209973
3.75168e-06
0.00209783
3.64733e-06
0.00209598
3.54806e-06
0.00209418
3.4535e-06
0.00209244
3.3633e-06
0.00209073
3.27716e-06
0.00208907
3.19478e-06
0.00208746
3.11591e-06
0.00208588
3.04032e-06
0.00208434
2.96779e-06
0.00208284
2.89814e-06
0.00208138
2.83117e-06
0.00207995
2.76674e-06
0.00207855
2.70468e-06
0.00207718
2.64485e-06
0.00207585
2.58714e-06
0.00207454
2.53141e-06
0.00207326
2.47757e-06
0.00207201
2.4255e-06
0.00207079
2.37511e-06
0.00206959
2.32632e-06
0.00206842
2.27905e-06
0.00206727
2.2332e-06
0.00206614
2.18873e-06
0.00206504
2.14555e-06
0.00206396
2.1036e-06
0.0020629
2.06283e-06
0.00206186
2.02319e-06
0.00206084
1.98461e-06
0.00205984
1.94706e-06
0.00205886
1.91048e-06
0.0020579
1.87483e-06
0.00205695
1.84008e-06
0.00205603
1.80619e-06
0.00205512
1.77311e-06
0.00205422
1.74081e-06
0.00205335
1.70927e-06
0.00205249
1.67845e-06
0.00205164
1.64833e-06
0.00205082
1.61887e-06
0.00205
1.59004e-06
0.0020492
1.56184e-06
0.00204842
1.53422e-06
0.00204764
1.50718e-06
0.00204689
1.48068e-06
0.00204614
1.45471e-06
0.00204541
1.42925e-06
0.00204469
1.40428e-06
0.00204399
1.37978e-06
0.00204329
1.35574e-06
0.00204261
1.33214e-06
0.00204194
1.30896e-06
0.00204129
1.2862e-06
0.00204064
1.26383e-06
0.00204001
1.24185e-06
0.00203938
1.22023e-06
0.00203877
1.19898e-06
0.00203817
1.17807e-06
0.00203758
1.15749e-06
0.002037
1.13725e-06
0.00203643
1.11731e-06
0.00203586
1.09768e-06
0.00203531
1.07835e-06
0.00203477
1.0593e-06
0.00203424
1.04053e-06
0.00203372
1.02203e-06
0.00203321
1.00379e-06
0.0020327
9.85808e-07
0.00203221
9.68068e-07
0.00203172
9.50566e-07
0.00203125
9.33295e-07
0.00203078
9.1625e-07
0.00203032
8.99423e-07
0.00202987
8.82809e-07
0.00202943
8.66401e-07
0.00202899
8.50194e-07
0.00202857
8.34183e-07
0.00202815
8.18362e-07
0.00202774
8.02725e-07
0.00202734
7.87269e-07
0.00202694
7.71988e-07
0.00202656
7.56878e-07
0.00202618
7.41935e-07
0.00202581
7.27154e-07
0.00202544
7.12531e-07
0.00202509
6.98063e-07
0.00202474
6.83746e-07
0.00202439
6.69575e-07
0.00202406
6.55548e-07
0.00202373
6.41662e-07
0.00202341
6.27913e-07
0.0020231
6.14298e-07
0.00202279
6.00814e-07
0.00202249
5.87458e-07
0.00202219
5.74228e-07
0.00202191
5.61121e-07
0.00202163
5.48135e-07
0.00202135
5.35267e-07
0.00202109
5.22515e-07
0.00202082
5.09877e-07
0.00202057
4.97351e-07
0.00202032
4.84935e-07
0.00202008
4.72626e-07
0.00201984
4.60424e-07
0.00201961
4.48326e-07
0.00201939
4.36332e-07
0.00201917
4.24438e-07
0.00201896
4.12644e-07
0.00201875
4.00949e-07
0.00201855
3.89351e-07
0.00201836
3.77849e-07
0.00201817
3.66442e-07
0.00201799
3.55129e-07
0.00201781
3.43908e-07
0.00201764
3.32779e-07
0.00201748
3.21741e-07
0.00201732
3.10794e-07
0.00201716
2.99935e-07
0.00201701
2.89166e-07
0.00201687
2.78484e-07
0.00201673
2.6789e-07
0.0020166
2.57382e-07
0.00201647
2.46961e-07
0.00201635
2.36626e-07
0.00201623
2.26377e-07
0.00201612
2.16212e-07
0.00201601
2.06133e-07
0.00201591
1.96138e-07
0.00201581
1.86227e-07
0.00201572
1.76401e-07
0.00201563
1.66658e-07
0.00201555
1.56999e-07
0.00201547
1.47424e-07
0.0020154
1.37933e-07
0.00201533
1.28525e-07
0.00201527
1.19201e-07
0.00201521
1.0996e-07
0.00201515
1.00802e-07
0.0020151
9.17285e-08
0.00201506
8.27382e-08
0.00201502
7.38315e-08
0.00201498
6.50084e-08
0.00201495
5.62691e-08
0.00201492
4.76135e-08
0.0020149
3.90417e-08
0.00201488
3.0554e-08
0.00201487
2.21502e-08
0.00201486
1.38306e-08
0.00201485
5.59522e-09
0.00201485
-2.55588e-09
0.00201485
-1.06226e-08
0.00201486
-1.86049e-08
0.00201487
-2.65026e-08
0.00201488
-3.43157e-08
0.0020149
-4.20442e-08
0.00201492
-4.96879e-08
0.00201495
-5.72469e-08
0.00201498
-6.47211e-08
0.00201501
-7.21105e-08
0.00201505
-7.94152e-08
0.00201509
-8.66351e-08
0.00201513
-9.37702e-08
0.00201518
-1.00821e-07
0.00201523
-1.07787e-07
0.00201528
-1.14668e-07
0.00201534
-1.21465e-07
0.0020154
-1.28177e-07
0.00201547
-1.34806e-07
0.00201554
-1.4135e-07
0.00201561
-1.4781e-07
0.00201568
-1.54187e-07
0.00201576
-1.60481e-07
0.00201584
-1.66691e-07
0.00201592
-1.72818e-07
0.00201601
-1.78862e-07
0.0020161
-1.84825e-07
0.00201619
-1.90705e-07
0.00201629
-1.96503e-07
0.00201639
-2.0222e-07
0.00201649
-2.07856e-07
0.0020166
-2.13411e-07
0.0020167
-2.18886e-07
0.00201681
-2.24281e-07
0.00201692
-2.29597e-07
0.00201704
-2.34834e-07
0.00201716
-2.39993e-07
0.00201728
-2.45073e-07
0.0020174
-2.50076e-07
0.00201753
-2.55002e-07
0.00201765
-2.59852e-07
0.00201778
-2.64626e-07
0.00201792
-2.69324e-07
0.00201805
-2.73948e-07
0.00201819
-2.78497e-07
0.00201833
-2.82973e-07
0.00201847
-2.87375e-07
0.00201861
-2.91706e-07
0.00201876
-2.95964e-07
0.00201891
-3.00151e-07
0.00201906
-3.04268e-07
0.00201921
-3.08314e-07
0.00201936
-3.12291e-07
0.00201952
-3.162e-07
0.00201968
-3.2004e-07
0.00201984
-3.23813e-07
0.00202
-3.27519e-07
0.00202016
-3.31159e-07
0.00202033
-3.34733e-07
0.0020205
-3.38242e-07
0.00202067
-3.41687e-07
0.00202084
-3.45068e-07
0.00202101
-3.48387e-07
0.00202118
-3.51643e-07
0.00202136
-3.54837e-07
0.00202154
-3.5797e-07
0.00202172
-3.61043e-07
0.0020219
-3.64056e-07
0.00202208
-3.67009e-07
0.00202226
-3.69904e-07
0.00202245
-3.72741e-07
0.00202263
-3.75521e-07
0.00202282
-3.78243e-07
0.00202301
-3.8091e-07
0.0020232
-3.83521e-07
0.00202339
-3.86077e-07
0.00202358
-3.88579e-07
0.00202378
-3.91027e-07
0.00202397
-3.93421e-07
0.00202417
-3.95763e-07
0.00202437
-3.98053e-07
0.00202456
-4.00291e-07
0.00202476
-4.02479e-07
0.00202496
-4.04615e-07
0.00202517
-4.06702e-07
0.00202537
-4.0874e-07
0.00202557
-4.10729e-07
0.00202578
-4.12669e-07
0.00202598
-4.14562e-07
0.00202619
-4.16407e-07
0.0020264
-4.18206e-07
0.00202661
-4.19958e-07
0.00202682
-4.21665e-07
0.00202703
-4.23327e-07
0.00202724
-4.24944e-07
0.00202745
-4.26516e-07
0.00202766
-4.28045e-07
0.00202788
-4.29531e-07
0.00202809
-4.30974e-07
0.0020283
-4.32374e-07
0.00202852
-4.33733e-07
0.00202874
-4.3505e-07
0.00202895
-4.36327e-07
0.00202917
-4.37563e-07
0.00202939
-4.38759e-07
0.00202961
-4.39916e-07
0.00202983
-4.41034e-07
0.00203005
-4.42113e-07
0.00203027
-4.43154e-07
0.00203049
-4.44157e-07
0.00203071
-4.45123e-07
0.00203093
-4.46053e-07
0.00203115
-4.46946e-07
0.00203138
-4.47803e-07
0.0020316
-4.48624e-07
0.00203182
-4.49411e-07
0.00203205
-4.50163e-07
0.00203227
-4.50881e-07
0.00203249
-4.51565e-07
0.00203272
-4.52216e-07
0.00203294
-4.52834e-07
0.00203317
-4.53419e-07
0.0020334
-4.53973e-07
0.00203362
-4.54494e-07
0.00203385
-4.54985e-07
0.00203408
-4.55445e-07
0.0020343
-4.55874e-07
0.00203453
-4.56274e-07
0.00203476
-4.56644e-07
0.00203498
-4.56984e-07
0.00203521
-4.57297e-07
0.00203544
-4.5758e-07
0.00203567
-4.57836e-07
0.00203589
-4.58064e-07
0.00203612
-4.58265e-07
0.00203635
-4.58439e-07
0.00203658
-4.58587e-07
0.00203681
-4.58709e-07
0.00203704
-4.58805e-07
0.00203726
-4.58876e-07
0.00203749
-4.58922e-07
0.00203772
-4.58944e-07
0.00203795
-4.58941e-07
0.00203818
-4.58915e-07
0.00203841
-4.58865e-07
0.00203864
-4.58792e-07
0.00203886
-4.58696e-07
0.00203909
-4.58578e-07
0.00203932
-4.58438e-07
0.00203955
-4.58276e-07
0.00203978
-4.58093e-07
0.00204
-4.57888e-07
0.00204023
-4.57663e-07
0.00204046
-4.57418e-07
0.00204069
-4.57152e-07
0.00204091
-4.56867e-07
0.00204114
-4.56562e-07
0.00204137
-4.56238e-07
0.0020416
-4.55894e-07
0.00204182
-4.55532e-07
0.00204205
-4.55152e-07
0.00204228
-4.54753e-07
0.0020425
-4.54337e-07
0.00204273
-4.53903e-07
0.00204295
-4.53451e-07
0.00204318
-4.52982e-07
0.00204341
-4.52497e-07
0.00204363
-4.51994e-07
0.00204386
-4.51475e-07
0.00204408
-4.50939e-07
0.0020443
-4.50387e-07
0.00204453
-4.49819e-07
0.00204475
-4.49234e-07
0.00204498
-4.48634e-07
0.0020452
-4.48019e-07
0.00204542
-4.47387e-07
0.00204564
-4.4674e-07
0.00204587
-4.46078e-07
0.00204609
-4.454e-07
0.00204631
-4.44707e-07
0.00204653
-4.43998e-07
0.00204675
-4.43274e-07
0.00204697
-4.42534e-07
0.00204719
-4.41779e-07
0.00204741
-4.41008e-07
0.00204763
-4.40221e-07
0.00204785
-4.39417e-07
0.00204807
-4.38598e-07
0.00204829
-4.37762e-07
0.0020485
-4.36909e-07
0.00204872
-4.36039e-07
0.00204894
-4.35151e-07
0.00204916
-4.34244e-07
0.00204937
-4.33319e-07
0.00204959
-4.32374e-07
0.0020498
-4.31409e-07
0.00205002
-4.30423e-07
0.00205023
-4.29414e-07
0.00205044
-4.28381e-07
0.00205066
-4.27324e-07
0.00205087
-4.2624e-07
0.00205108
-4.25128e-07
0.00205129
-4.23985e-07
0.0020515
-4.2281e-07
0.00205171
-4.21599e-07
0.00205192
-4.20349e-07
0.00205213
-4.19056e-07
0.00205234
-4.17715e-07
0.00205255
-4.16312e-07
0.00205275
-4.1487e-07
0.00205296
-4.1322e-07
0.00205316
-4.11833e-07
-4.07922e-07
0.00247084
0.000190158
0.00243653
0.000143226
0.00240244
0.00011149
0.00237102
8.82236e-05
0.00234325
7.05573e-05
0.00231943
5.76041e-05
0.00229907
4.80704e-05
0.00228155
4.08457e-05
0.00226635
3.52652e-05
0.00225305
3.08919e-05
0.0022413
2.74029e-05
0.00223082
2.45692e-05
0.0022214
2.22322e-05
0.00221287
2.02784e-05
0.00220509
1.86242e-05
0.00219796
1.7208e-05
0.00219137
1.59833e-05
0.00218527
1.49147e-05
0.00217959
1.39748e-05
0.00217427
1.31421e-05
0.00216929
1.23995e-05
0.0021646
1.17333e-05
0.00216018
1.11325e-05
0.00215599
1.05879e-05
0.00215202
1.0092e-05
0.00214824
9.63863e-06
0.00214464
9.22251e-06
0.0021412
8.83923e-06
0.00213792
8.48503e-06
0.00213477
8.1567e-06
0.00213175
7.85148e-06
0.00212885
7.567e-06
0.00212606
7.30117e-06
0.00212338
7.05219e-06
0.00212079
6.81848e-06
0.00211829
6.59865e-06
0.00211587
6.39148e-06
0.00211354
6.19586e-06
0.00211128
6.01084e-06
0.00210909
5.83555e-06
0.00210697
5.66922e-06
0.00210491
5.51115e-06
0.00210292
5.36072e-06
0.00210097
5.21737e-06
0.00209909
5.08059e-06
0.00209726
4.94992e-06
0.00209547
4.82494e-06
0.00209373
4.70526e-06
0.00209204
4.59054e-06
0.00209039
4.48046e-06
0.00208878
4.37472e-06
0.00208721
4.27306e-06
0.00208568
4.17523e-06
0.00208419
4.08101e-06
0.00208273
3.99018e-06
0.00208131
3.90255e-06
0.00207991
3.81795e-06
0.00207855
3.7362e-06
0.00207722
3.65715e-06
0.00207592
3.58066e-06
0.00207465
3.50659e-06
0.0020734
3.43483e-06
0.00207218
3.36525e-06
0.00207099
3.29774e-06
0.00206982
3.23221e-06
0.00206867
3.16856e-06
0.00206755
3.1067e-06
0.00206645
3.04654e-06
0.00206537
2.98802e-06
0.00206432
2.93105e-06
0.00206328
2.87557e-06
0.00206227
2.82151e-06
0.00206127
2.76881e-06
0.00206029
2.7174e-06
0.00205934
2.66725e-06
0.0020584
2.61829e-06
0.00205747
2.57047e-06
0.00205657
2.52376e-06
0.00205568
2.4781e-06
0.00205481
2.43345e-06
0.00205395
2.38977e-06
0.00205311
2.34704e-06
0.00205229
2.3052e-06
0.00205148
2.26422e-06
0.00205069
2.22409e-06
0.00204991
2.18475e-06
0.00204914
2.14619e-06
0.00204839
2.10838e-06
0.00204765
2.07128e-06
0.00204692
2.03488e-06
0.00204621
1.99915e-06
0.00204551
1.96406e-06
0.00204482
1.9296e-06
0.00204414
1.89575e-06
0.00204348
1.86247e-06
0.00204283
1.82976e-06
0.00204219
1.7976e-06
0.00204156
1.76596e-06
0.00204094
1.73483e-06
0.00204034
1.7042e-06
0.00203974
1.67405e-06
0.00203916
1.64436e-06
0.00203858
1.61511e-06
0.00203802
1.58631e-06
0.00203746
1.55792e-06
0.00203692
1.52994e-06
0.00203638
1.50236e-06
0.00203586
1.47517e-06
0.00203534
1.44835e-06
0.00203484
1.42189e-06
0.00203434
1.39578e-06
0.00203386
1.37001e-06
0.00203338
1.34458e-06
0.00203291
1.31947e-06
0.00203245
1.29467e-06
0.002032
1.27018e-06
0.00203155
1.24599e-06
0.00203112
1.22208e-06
0.00203069
1.19846e-06
0.00203027
1.17511e-06
0.00202986
1.15203e-06
0.00202946
1.12921e-06
0.00202907
1.10664e-06
0.00202868
1.08431e-06
0.0020283
1.06223e-06
0.00202793
1.04039e-06
0.00202757
1.01877e-06
0.00202721
9.97376e-07
0.00202686
9.76202e-07
0.00202652
9.55242e-07
0.00202619
9.34491e-07
0.00202586
9.13944e-07
0.00202554
8.93598e-07
0.00202523
8.73447e-07
0.00202493
8.53488e-07
0.00202463
8.33718e-07
0.00202434
8.14131e-07
0.00202405
7.94726e-07
0.00202377
7.75497e-07
0.0020235
7.56443e-07
0.00202324
7.3756e-07
0.00202298
7.18845e-07
0.00202273
7.00296e-07
0.00202248
6.81909e-07
0.00202224
6.63682e-07
0.00202201
6.45613e-07
0.00202178
6.27699e-07
0.00202156
6.09939e-07
0.00202135
5.9233e-07
0.00202114
5.74871e-07
0.00202094
5.57559e-07
0.00202074
5.40393e-07
0.00202055
5.23371e-07
0.00202036
5.06492e-07
0.00202018
4.89755e-07
0.00202001
4.73157e-07
0.00201984
4.56699e-07
0.00201968
4.40378e-07
0.00201953
4.24194e-07
0.00201937
4.08146e-07
0.00201923
3.92233e-07
0.00201909
3.76453e-07
0.00201896
3.60808e-07
0.00201883
3.45295e-07
0.0020187
3.29914e-07
0.00201858
3.14664e-07
0.00201847
2.99546e-07
0.00201836
2.84558e-07
0.00201826
2.69701e-07
0.00201816
2.54974e-07
0.00201807
2.40377e-07
0.00201798
2.25909e-07
0.0020179
2.1157e-07
0.00201782
1.97361e-07
0.00201775
1.83281e-07
0.00201768
1.69329e-07
0.00201761
1.55507e-07
0.00201755
1.41814e-07
0.0020175
1.28249e-07
0.00201745
1.14814e-07
0.00201741
1.01507e-07
0.00201736
8.83292e-08
0.00201733
7.52805e-08
0.0020173
6.23609e-08
0.00201727
4.95704e-08
0.00201725
3.69092e-08
0.00201723
2.43772e-08
0.00201721
1.19746e-08
0.0020172
-2.98598e-10
0.0020172
-1.24423e-08
0.00201719
-2.44565e-08
0.0020172
-3.63411e-08
0.0020172
-4.80961e-08
0.00201721
-5.97214e-08
0.00201723
-7.12171e-08
0.00201724
-8.25832e-08
0.00201727
-9.38197e-08
0.00201729
-1.04927e-07
0.00201732
-1.15904e-07
0.00201735
-1.26752e-07
0.00201739
-1.37471e-07
0.00201743
-1.4806e-07
0.00201747
-1.58521e-07
0.00201752
-1.68853e-07
0.00201757
-1.79056e-07
0.00201763
-1.89131e-07
0.00201768
-1.99078e-07
0.00201775
-2.08898e-07
0.00201781
-2.18589e-07
0.00201788
-2.28154e-07
0.00201795
-2.37592e-07
0.00201802
-2.46904e-07
0.0020181
-2.5609e-07
0.00201818
-2.65151e-07
0.00201826
-2.74087e-07
0.00201835
-2.82898e-07
0.00201844
-2.91586e-07
0.00201853
-3.00151e-07
0.00201863
-3.08593e-07
0.00201872
-3.16913e-07
0.00201883
-3.25112e-07
0.00201893
-3.33191e-07
0.00201904
-3.41149e-07
0.00201914
-3.48989e-07
0.00201926
-3.5671e-07
0.00201937
-3.64313e-07
0.00201949
-3.718e-07
0.00201961
-3.7917e-07
0.00201973
-3.86426e-07
0.00201985
-3.93567e-07
0.00201998
-4.00595e-07
0.00202011
-4.0751e-07
0.00202024
-4.14313e-07
0.00202037
-4.21006e-07
0.00202051
-4.27588e-07
0.00202065
-4.34062e-07
0.00202079
-4.40428e-07
0.00202093
-4.46687e-07
0.00202107
-4.52839e-07
0.00202122
-4.58887e-07
0.00202137
-4.6483e-07
0.00202152
-4.7067e-07
0.00202167
-4.76408e-07
0.00202183
-4.82044e-07
0.00202198
-4.87581e-07
0.00202214
-4.93018e-07
0.0020223
-4.98356e-07
0.00202246
-5.03597e-07
0.00202263
-5.08742e-07
0.00202279
-5.13792e-07
0.00202296
-5.18746e-07
0.00202313
-5.23608e-07
0.0020233
-5.28377e-07
0.00202347
-5.33054e-07
0.00202365
-5.37641e-07
0.00202382
-5.42138e-07
0.002024
-5.46546e-07
0.00202417
-5.50867e-07
0.00202435
-5.55101e-07
0.00202454
-5.59249e-07
0.00202472
-5.63311e-07
0.0020249
-5.6729e-07
0.00202509
-5.71185e-07
0.00202527
-5.74999e-07
0.00202546
-5.7873e-07
0.00202565
-5.82381e-07
0.00202584
-5.85953e-07
0.00202603
-5.89445e-07
0.00202622
-5.9286e-07
0.00202642
-5.96197e-07
0.00202661
-5.99458e-07
0.00202681
-6.02644e-07
0.00202701
-6.05755e-07
0.0020272
-6.08792e-07
0.0020274
-6.11756e-07
0.0020276
-6.14648e-07
0.0020278
-6.17468e-07
0.00202801
-6.20218e-07
0.00202821
-6.22898e-07
0.00202841
-6.25508e-07
0.00202862
-6.2805e-07
0.00202882
-6.30525e-07
0.00202903
-6.32933e-07
0.00202924
-6.35274e-07
0.00202944
-6.37551e-07
0.00202965
-6.39762e-07
0.00202986
-6.4191e-07
0.00203007
-6.43994e-07
0.00203028
-6.46016e-07
0.0020305
-6.47976e-07
0.00203071
-6.49875e-07
0.00203092
-6.51714e-07
0.00203113
-6.53492e-07
0.00203135
-6.55212e-07
0.00203156
-6.56874e-07
0.00203178
-6.58478e-07
0.00203199
-6.60025e-07
0.00203221
-6.61516e-07
0.00203243
-6.62951e-07
0.00203265
-6.64331e-07
0.00203286
-6.65657e-07
0.00203308
-6.66929e-07
0.0020333
-6.68148e-07
0.00203352
-6.69316e-07
0.00203374
-6.70431e-07
0.00203396
-6.71495e-07
0.00203418
-6.7251e-07
0.0020344
-6.73474e-07
0.00203462
-6.74389e-07
0.00203484
-6.75256e-07
0.00203506
-6.76075e-07
0.00203529
-6.76847e-07
0.00203551
-6.77573e-07
0.00203573
-6.78252e-07
0.00203595
-6.78886e-07
0.00203618
-6.79476e-07
0.0020364
-6.80021e-07
0.00203662
-6.80523e-07
0.00203685
-6.80983e-07
0.00203707
-6.81399e-07
0.00203729
-6.81775e-07
0.00203752
-6.82109e-07
0.00203774
-6.82403e-07
0.00203796
-6.82656e-07
0.00203819
-6.82871e-07
0.00203841
-6.83047e-07
0.00203864
-6.83184e-07
0.00203886
-6.83284e-07
0.00203909
-6.83347e-07
0.00203931
-6.83373e-07
0.00203953
-6.83364e-07
0.00203976
-6.83319e-07
0.00203998
-6.83239e-07
0.00204021
-6.83124e-07
0.00204043
-6.82976e-07
0.00204066
-6.82795e-07
0.00204088
-6.8258e-07
0.00204111
-6.82334e-07
0.00204133
-6.82055e-07
0.00204155
-6.81745e-07
0.00204178
-6.81404e-07
0.002042
-6.81033e-07
0.00204223
-6.80632e-07
0.00204245
-6.80201e-07
0.00204267
-6.79741e-07
0.0020429
-6.79252e-07
0.00204312
-6.78736e-07
0.00204334
-6.78191e-07
0.00204356
-6.77619e-07
0.00204379
-6.77019e-07
0.00204401
-6.76393e-07
0.00204423
-6.75741e-07
0.00204445
-6.75062e-07
0.00204468
-6.74358e-07
0.0020449
-6.73629e-07
0.00204512
-6.72874e-07
0.00204534
-6.72094e-07
0.00204556
-6.7129e-07
0.00204578
-6.70461e-07
0.002046
-6.69609e-07
0.00204622
-6.68732e-07
0.00204644
-6.67831e-07
0.00204666
-6.66907e-07
0.00204688
-6.6596e-07
0.0020471
-6.64989e-07
0.00204732
-6.63994e-07
0.00204754
-6.62977e-07
0.00204775
-6.61936e-07
0.00204797
-6.60871e-07
0.00204819
-6.59784e-07
0.00204841
-6.58672e-07
0.00204862
-6.57537e-07
0.00204884
-6.56378e-07
0.00204905
-6.55195e-07
0.00204927
-6.53987e-07
0.00204949
-6.52754e-07
0.0020497
-6.51496e-07
0.00204991
-6.50212e-07
0.00205013
-6.48901e-07
0.00205034
-6.47562e-07
0.00205055
-6.46195e-07
0.00205077
-6.44799e-07
0.00205098
-6.43372e-07
0.00205119
-6.41913e-07
0.0020514
-6.40421e-07
0.00205161
-6.38893e-07
0.00205182
-6.37328e-07
0.00205203
-6.35724e-07
0.00205224
-6.34078e-07
0.00205245
-6.32386e-07
0.00205266
-6.30645e-07
0.00205286
-6.28852e-07
0.00205307
-6.27002e-07
0.00205328
-6.25087e-07
0.00205348
-6.23102e-07
0.00205369
-6.21033e-07
0.00205389
-6.18883e-07
0.00205409
-6.16547e-07
0.0020543
-6.14238e-07
-6.10013e-07
0.00248171
0.000198932
0.00246142
0.000163519
0.00243772
0.000135196
0.00241325
0.000112692
0.00238933
9.44689e-05
0.00236699
7.99508e-05
0.00234659
6.847e-05
0.00232814
5.92981e-05
0.00231151
5.18955e-05
0.00229652
4.58742e-05
0.002283
4.0929e-05
0.00227074
3.68235e-05
0.0022596
3.33795e-05
0.00224941
3.04622e-05
0.00224007
2.7968e-05
0.00223146
2.5817e-05
0.0022235
2.39468e-05
0.0022161
2.23087e-05
0.00220921
2.0864e-05
0.00220277
1.95819e-05
0.00219673
1.84375e-05
0.00219106
1.74105e-05
0.00218571
1.64843e-05
0.00218065
1.56451e-05
0.00217586
1.48817e-05
0.00217131
1.41844e-05
0.00216699
1.35452e-05
0.00216287
1.29573e-05
0.00215894
1.24148e-05
0.00215519
1.19127e-05
0.00215159
1.14467e-05
0.00214814
1.10131e-05
0.00214484
1.06087e-05
0.00214166
1.02306e-05
0.0021386
9.8763e-06
0.00213566
9.54367e-06
0.00213282
9.23075e-06
0.00213008
8.93584e-06
0.00212743
8.6574e-06
0.00212487
8.39408e-06
0.0021224
8.14467e-06
0.00212
7.90806e-06
0.00211768
7.68329e-06
0.00211542
7.46946e-06
0.00211324
7.26578e-06
0.00211112
7.07152e-06
0.00210906
6.88603e-06
0.00210705
6.7087e-06