/*--------------------------------*- C++ -*----------------------------------*\
| =========                 |                                                 |
| \\      /  F ield         | OpenFOAM: The Open Source CFD Toolbox           |
|  \\    /   O peration     | Version:  2506                                  |
|   \\  /    A nd           | Website:  www.openfoam.com                      |
|    \\/     M anipulation  |                                                 |
\*---------------------------------------------------------------------------*/
FoamFile
{
    version     2.0;
    format      ascii;
    arch        "LSB;label=32;scalar=64";
    class       volVectorField;
    location    "1000";
    object      U;
}
// * * * * * * * * * * * * * * * * * * * * * * * * * * * * * * * * * * * * * //

dimensions      [0 1 -1 0 0 0 0];

internalField   nonuniform List<vector> 
131949
(
(9.79004 0.50869 0)
(9.35424 0.191718 0)
(9.14346 0.0846578 0)
(9.05442 0.0439539 0)
(8.98406 0.0273121 0)
(8.92302 0.0209585 0)
(8.87475 0.0179553 0)
(8.83487 0.0158988 0)
(8.79991 0.0143153 0)
(8.76875 0.0130463 0)
(8.74079 0.0119818 0)
(8.71541 0.0110693 0)
(8.69214 0.0102814 0)
(8.67066 0.00959547 0)
(8.65071 0.00899319 0)
(8.63209 0.00846039 0)
(8.61463 0.00798601 0)
(8.59819 0.00756105 0)
(8.58266 0.00717821 0)
(8.56795 0.00683153 0)
(8.55397 0.00651612 0)
(8.54066 0.00622789 0)
(8.52795 0.00596345 0)
(8.5158 0.00571992 0)
(8.50415 0.00549488 0)
(8.49298 0.00528627 0)
(8.48224 0.00509232 0)
(8.4719 0.00491148 0)
(8.46193 0.00474245 0)
(8.45232 0.00458407 0)
(8.44303 0.00443534 0)
(8.43404 0.00429537 0)
(8.42535 0.00416338 0)
(8.41693 0.00403869 0)
(8.40876 0.00392068 0)
(8.40083 0.0038088 0)
(8.39314 0.00370258 0)
(8.38566 0.00360157 0)
(8.37839 0.00350538 0)
(8.37131 0.00341366 0)
(8.36442 0.00332608 0)
(8.35771 0.00324236 0)
(8.35117 0.00316223 0)
(8.3448 0.00308545 0)
(8.33858 0.0030118 0)
(8.33251 0.00294109 0)
(8.32658 0.00287312 0)
(8.32079 0.00280774 0)
(8.31514 0.00274478 0)
(8.30961 0.0026841 0)
(8.30421 0.00262558 0)
(8.29892 0.00256908 0)
(8.29375 0.0025145 0)
(8.2887 0.00246174 0)
(8.28374 0.00241068 0)
(8.27889 0.00236126 0)
(8.27414 0.00231337 0)
(8.26949 0.00226695 0)
(8.26493 0.00222191 0)
(8.26047 0.0021782 0)
(8.25609 0.00213575 0)
(8.2518 0.00209449 0)
(8.24759 0.00205437 0)
(8.24346 0.00201535 0)
(8.23941 0.00197736 0)
(8.23544 0.00194037 0)
(8.23154 0.00190433 0)
(8.22771 0.00186919 0)
(8.22396 0.00183493 0)
(8.22028 0.00180149 0)
(8.21666 0.00176886 0)
(8.21311 0.00173699 0)
(8.20962 0.00170585 0)
(8.2062 0.00167542 0)
(8.20283 0.00164566 0)
(8.19953 0.00161656 0)
(8.19628 0.00158808 0)
(8.1931 0.0015602 0)
(8.18997 0.0015329 0)
(8.18689 0.00150615 0)
(8.18387 0.00147995 0)
(8.1809 0.00145426 0)
(8.17798 0.00142907 0)
(8.17512 0.00140435 0)
(8.1723 0.00138011 0)
(8.16953 0.00135631 0)
(8.16681 0.00133294 0)
(8.16414 0.00130999 0)
(8.16151 0.00128744 0)
(8.15893 0.00126528 0)
(8.15639 0.0012435 0)
(8.1539 0.00122208 0)
(8.15145 0.00120101 0)
(8.14904 0.00118029 0)
(8.14668 0.00115989 0)
(8.14435 0.00113982 0)
(8.14207 0.00112005 0)
(8.13982 0.00110058 0)
(8.13762 0.00108141 0)
(8.13545 0.00106252 0)
(8.13332 0.00104389 0)
(8.13123 0.00102554 0)
(8.12917 0.00100744 0)
(8.12716 0.000989591 0)
(8.12517 0.000971984 0)
(8.12323 0.000954612 0)
(8.12131 0.000937468 0)
(8.11944 0.000920545 0)
(8.11759 0.000903838 0)
(8.11578 0.000887341 0)
(8.114 0.000871047 0)
(8.11226 0.000854951 0)
(8.11055 0.000839048 0)
(8.10887 0.000823332 0)
(8.10722 0.000807798 0)
(8.1056 0.000792442 0)
(8.10402 0.000777259 0)
(8.10246 0.000762245 0)
(8.10093 0.000747394 0)
(8.09944 0.000732704 0)
(8.09797 0.000718169 0)
(8.09653 0.000703787 0)
(8.09513 0.000689553 0)
(8.09375 0.000675464 0)
(8.09239 0.000661516 0)
(8.09107 0.000647707 0)
(8.08977 0.000634033 0)
(8.08851 0.00062049 0)
(8.08726 0.000607077 0)
(8.08605 0.00059379 0)
(8.08486 0.000580626 0)
(8.0837 0.000567584 0)
(8.08257 0.00055466 0)
(8.08146 0.000541853 0)
(8.08037 0.000529159 0)
(8.07932 0.000516577 0)
(8.07828 0.000504105 0)
(8.07727 0.00049174 0)
(8.07629 0.000479481 0)
(8.07533 0.000467327 0)
(8.0744 0.000455274 0)
(8.07349 0.000443323 0)
(8.0726 0.00043147 0)
(8.07174 0.000419715 0)
(8.0709 0.000408057 0)
(8.07009 0.000396494 0)
(8.0693 0.000385024 0)
(8.06853 0.000373647 0)
(8.06778 0.000362362 0)
(8.06706 0.000351167 0)
(8.06636 0.000340061 0)
(8.06568 0.000329045 0)
(8.06502 0.000318116 0)
(8.06438 0.000307274 0)
(8.06377 0.000296518 0)
(8.06318 0.000285848 0)
(8.06261 0.000275263 0)
(8.06206 0.000264763 0)
(8.06153 0.000254347 0)
(8.06102 0.000244014 0)
(8.06054 0.000233764 0)
(8.06007 0.000223597 0)
(8.05963 0.000213512 0)
(8.0592 0.00020351 0)
(8.0588 0.00019359 0)
(8.05841 0.000183751 0)
(8.05804 0.000173994 0)
(8.0577 0.000164318 0)
(8.05737 0.000154723 0)
(8.05706 0.00014521 0)
(8.05677 0.000135778 0)
(8.05651 0.000126427 0)
(8.05625 0.000117157 0)
(8.05602 0.000107968 0)
(8.05581 9.88603e-05 0)
(8.05561 8.98339e-05 0)
(8.05543 8.08888e-05 0)
(8.05527 7.20251e-05 0)
(8.05513 6.32428e-05 0)
(8.05501 5.45421e-05 0)
(8.0549 4.59231e-05 0)
(8.05481 3.73858e-05 0)
(8.05474 2.89305e-05 0)
(8.05468 2.05573e-05 0)
(8.05464 1.22662e-05 0)
(8.05462 4.05738e-06 0)
(8.05461 -4.06899e-06 0)
(8.05462 -1.21128e-05 0)
(8.05465 -2.0074e-05 0)
(8.05469 -2.79524e-05 0)
(8.05475 -3.57478e-05 0)
(8.05482 -4.34603e-05 0)
(8.05491 -5.10898e-05 0)
(8.05501 -5.8636e-05 0)
(8.05513 -6.6099e-05 0)
(8.05527 -7.34788e-05 0)
(8.05541 -8.07752e-05 0)
(8.05558 -8.79883e-05 0)
(8.05575 -9.5118e-05 0)
(8.05595 -0.000102164 1.80721e-105)
(8.05615 -0.000109127 -1.80711e-105)
(8.05637 -0.000116007 0)
(8.0566 -0.000122804 0)
(8.05685 -0.000129517 0)
(8.05711 -0.000136147 0)
(8.05739 -0.000142695 0)
(8.05767 -0.000149159 0)
(8.05797 -0.000155541 0)
(8.05828 -0.00016184 0)
(8.05861 -0.000168057 0)
(8.05895 -0.000174192 0)
(8.0593 -0.000180245 0)
(8.05966 -0.000186217 0)
(8.06003 -0.000192107 0)
(8.06042 -0.000197916 0)
(8.06081 -0.000203645 0)
(8.06122 -0.000209293 0)
(8.06164 -0.000214861 0)
(8.06207 -0.000220349 0)
(8.06251 -0.000225758 0)
(8.06297 -0.000231088 0)
(8.06343 -0.00023634 0)
(8.0639 -0.000241514 0)
(8.06439 -0.00024661 0)
(8.06488 -0.000251629 0)
(8.06538 -0.000256571 0)
(8.0659 -0.000261438 0)
(8.06642 -0.000266228 0)
(8.06695 -0.000270944 0)
(8.0675 -0.000275585 0)
(8.06805 -0.000280152 0)
(8.06861 -0.000284646 0)
(8.06918 -0.000289066 0)
(8.06976 -0.000293415 0)
(8.07035 -0.000297691 0)
(8.07094 -0.000301897 0)
(8.07154 -0.000306032 0)
(8.07216 -0.000310097 0)
(8.07278 -0.000314093 0)
(8.07341 -0.00031802 0)
(8.07404 -0.000321879 0)
(8.07469 -0.00032567 0)
(8.07534 -0.000329395 0)
(8.076 -0.000333053 0)
(8.07666 -0.000336646 0)
(8.07734 -0.000340174 0)
(8.07802 -0.000343637 0)
(8.0787 -0.000347037 0)
(8.0794 -0.000350374 0)
(8.0801 -0.000353648 0)
(8.0808 -0.00035686 0)
(8.08152 -0.000360011 0)
(8.08224 -0.000363102 0)
(8.08296 -0.000366133 0)
(8.0837 -0.000369104 0)
(8.08443 -0.000372017 0)
(8.08518 -0.000374871 0)
(8.08593 -0.000377668 0)
(8.08668 -0.000380409 0)
(8.08744 -0.000383092 0)
(8.08821 -0.000385721 0)
(8.08898 -0.000388294 0)
(8.08975 -0.000390812 0)
(8.09054 -0.000393277 0)
(8.09132 -0.000395688 0)
(8.09211 -0.000398046 0)
(8.09291 -0.000400352 0)
(8.09371 -0.000402606 0)
(8.09451 -0.00040481 0)
(8.09532 -0.000406962 0)
(8.09613 -0.000409065 0)
(8.09695 -0.000411118 0)
(8.09777 -0.000413122 0)
(8.0986 -0.000415078 0)
(8.09943 -0.000416985 0)
(8.10026 -0.000418846 0)
(8.1011 -0.000420659 0)
(8.10194 -0.000422426 0)
(8.10278 -0.000424147 0)
(8.10363 -0.000425823 0)
(8.10448 -0.000427454 0)
(8.10533 -0.000429041 0)
(8.10619 -0.000430584 0)
(8.10705 -0.000432083 0)
(8.10791 -0.000433539 0)
(8.10878 -0.000434953 0)
(8.10965 -0.000436325 0)
(8.11052 -0.000437656 0)
(8.11139 -0.000438945 0)
(8.11227 -0.000440194 0)
(8.11315 -0.000441403 0)
(8.11403 -0.000442572 0)
(8.11492 -0.000443702 0)
(8.1158 -0.000444793 0)
(8.11669 -0.000445846 0)
(8.11758 -0.000446861 0)
(8.11847 -0.000447838 0)
(8.11937 -0.000448779 0)
(8.12026 -0.000449683 0)
(8.12116 -0.000450551 0)
(8.12206 -0.000451384 0)
(8.12296 -0.000452181 0)
(8.12386 -0.000452943 0)
(8.12477 -0.000453671 0)
(8.12567 -0.000454366 0)
(8.12658 -0.000455026 0)
(8.12749 -0.000455654 0)
(8.1284 -0.000456249 0)
(8.12931 -0.000456812 0)
(8.13022 -0.000457343 0)
(8.13114 -0.000457842 0)
(8.13205 -0.000458311 0)
(8.13297 -0.000458749 0)
(8.13388 -0.000459157 0)
(8.1348 -0.000459535 0)
(8.13571 -0.000459884 0)
(8.13663 -0.000460204 0)
(8.13755 -0.000460495 0)
(8.13847 -0.000460758 0)
(8.13939 -0.000460993 0)
(8.14031 -0.000461201 0)
(8.14123 -0.000461383 0)
(8.14215 -0.000461537 0)
(8.14307 -0.000461665 0)
(8.144 -0.000461768 0)
(8.14492 -0.000461845 0)
(8.14584 -0.000461897 0)
(8.14676 -0.000461924 0)
(8.14768 -0.000461927 0)
(8.1486 -0.000461906 0)
(8.14953 -0.000461861 0)
(8.15045 -0.000461793 0)
(8.15137 -0.000461702 0)
(8.15229 -0.000461589 0)
(8.15321 -0.000461453 0)
(8.15413 -0.000461295 0)
(8.15505 -0.000461116 0)
(8.15597 -0.000460916 0)
(8.15689 -0.000460695 0)
(8.15781 -0.000460453 0)
(8.15873 -0.00046019 0)
(8.15965 -0.000459908 0)
(8.16057 -0.000459606 0)
(8.16149 -0.000459285 0)
(8.1624 -0.000458945 0)
(8.16332 -0.000458586 0)
(8.16423 -0.000458208 0)
(8.16515 -0.000457812 0)
(8.16606 -0.000457398 0)
(8.16697 -0.000456966 0)
(8.16789 -0.000456516 0)
(8.1688 -0.000456049 0)
(8.16971 -0.000455565 0)
(8.17062 -0.000455065 0)
(8.17152 -0.000454547 0)
(8.17243 -0.000454013 0)
(8.17334 -0.000453463 0)
(8.17424 -0.000452896 0)
(8.17515 -0.000452314 0)
(8.17605 -0.000451715 0)
(8.17695 -0.000451101 0)
(8.17785 -0.000450471 0)
(8.17875 -0.000449826 0)
(8.17965 -0.000449165 0)
(8.18054 -0.000448489 0)
(8.18144 -0.000447797 0)
(8.18233 -0.000447091 0)
(8.18322 -0.000446368 0)
(8.18411 -0.000445631 0)
(8.185 -0.000444877 0)
(8.18589 -0.000444109 0)
(8.18677 -0.000443324 0)
(8.18766 -0.000442524 0)
(8.18854 -0.000441708 0)
(8.18942 -0.000440876 0)
(8.1903 -0.000440027 0)
(8.19118 -0.000439161 0)
(8.19206 -0.000438277 0)
(8.19293 -0.000437376 0)
(8.1938 -0.000436457 0)
(8.19467 -0.000435519 0)
(8.19554 -0.000434561 0)
(8.19641 -0.000433583 0)
(8.19727 -0.000432583 0)
(8.19814 -0.000431561 0)
(8.199 -0.000430516 0)
(8.19986 -0.000429445 0)
(8.20071 -0.000428347 0)
(8.20157 -0.000427222 0)
(8.20242 -0.000426065 0)
(8.20327 -0.000424875 0)
(8.20412 -0.000423649 0)
(8.20496 -0.000422384 0)
(8.2058 -0.000421074 0)
(8.20664 -0.000419721 0)
(8.20748 -0.00041828 0)
(8.20831 -0.000416914 0)
(8.20915 -0.000414859 0)
(8.20992 -0.000415576 0)
(8.21104 -0.000403201 0)
(9.89636 0.592428 0)
(9.64868 0.329307 0)
(9.44654 0.219669 0)
(9.30553 0.153639 0)
(9.19287 0.111412 0)
(9.10032 0.0866493 0)
(9.02652 0.0711006 0)
(8.96656 0.0601999 0)
(8.91599 0.0522249 0)
(8.87242 0.0462136 0)
(8.83435 0.0414993 0)
(8.80061 0.0376833 0)
(8.77033 0.0345278 0)
(8.74289 0.0318725 0)
(8.7178 0.029604 0)
(8.69472 0.0276415 0)
(8.67334 0.0259257 0)
(8.65344 0.0244121 0)
(8.63482 0.0230661 0)
(8.61735 0.0218608 0)
(8.60088 0.0207748 0)
(8.58531 0.0197908 0)
(8.57055 0.0188948 0)
(8.55652 0.0180752 0)
(8.54315 0.0173224 0)
(8.53039 0.0166284 0)
(8.51819 0.0159863 0)
(8.50649 0.0153904 0)
(8.49527 0.0148357 0)
(8.48448 0.0143179 0)
(8.4741 0.0138334 0)
(8.46409 0.0133789 0)
(8.45444 0.0129517 0)
(8.44511 0.0125492 0)
(8.4361 0.0121693 0)
(8.42737 0.01181 0)
(8.41892 0.0114697 0)
(8.41073 0.0111468 0)
(8.40278 0.0108399 0)
(8.39507 0.0105479 0)
(8.38757 0.0102696 0)
(8.38028 0.010004 0)
(8.37319 0.00975019 0)
(8.36629 0.0095074 0)
(8.35957 0.00927487 0)
(8.35302 0.00905191 0)
(8.34664 0.00883791 0)
(8.34041 0.00863231 0)
(8.33434 0.00843458 0)
(8.32841 0.00824424 0)
(8.32262 0.00806087 0)
(8.31696 0.00788404 0)
(8.31143 0.00771339 0)
(8.30603 0.00754857 0)
(8.30075 0.00738926 0)
(8.29558 0.00723517 0)
(8.29053 0.00708601 0)
(8.28558 0.00694154 0)
(8.28074 0.0068015 0)
(8.27599 0.00666569 0)
(8.27135 0.00653388 0)
(8.2668 0.00640589 0)
(8.26234 0.00628153 0)
(8.25797 0.00616063 0)
(8.25369 0.00604303 0)
(8.24949 0.00592858 0)
(8.24537 0.00581713 0)
(8.24134 0.00570857 0)
(8.23738 0.00560275 0)
(8.23349 0.00549956 0)
(8.22968 0.00539889 0)
(8.22594 0.00530063 0)
(8.22227 0.00520469 0)
(8.21867 0.00511097 0)
(8.21513 0.00501937 0)
(8.21166 0.00492982 0)
(8.20825 0.00484224 0)
(8.2049 0.00475654 0)
(8.20162 0.00467266 0)
(8.19839 0.00459053 0)
(8.19522 0.00451007 0)
(8.19211 0.00443124 0)
(8.18905 0.00435397 0)
(8.18605 0.0042782 0)
(8.1831 0.00420388 0)
(8.1802 0.00413095 0)
(8.17735 0.00405938 0)
(8.17455 0.00398911 0)
(8.1718 0.0039201 0)
(8.1691 0.0038523 0)
(8.16645 0.00378568 0)
(8.16384 0.00372019 0)
(8.16128 0.0036558 0)
(8.15877 0.00359247 0)
(8.15629 0.00353017 0)
(8.15387 0.00346886 0)
(8.15148 0.00340852 0)
(8.14913 0.00334911 0)
(8.14683 0.0032906 0)
(8.14457 0.00323296 0)
(8.14235 0.00317618 0)
(8.14016 0.00312022 0)
(8.13802 0.00306505 0)
(8.13591 0.00301066 0)
(8.13384 0.00295702 0)
(8.13181 0.00290411 0)
(8.12982 0.00285191 0)
(8.12786 0.00280039 0)
(8.12593 0.00274954 0)
(8.12404 0.00269934 0)
(8.12219 0.00264977 0)
(8.12037 0.00260081 0)
(8.11858 0.00255245 0)
(8.11683 0.00250466 0)
(8.11511 0.00245744 0)
(8.11342 0.00241078 0)
(8.11177 0.00236464 0)
(8.11014 0.00231903 0)
(8.10855 0.00227392 0)
(8.10699 0.0022293 0)
(8.10546 0.00218517 0)
(8.10396 0.00214151 0)
(8.10249 0.00209831 0)
(8.10105 0.00205555 0)
(8.09964 0.00201323 0)
(8.09825 0.00197134 0)
(8.0969 0.00192986 0)
(8.09557 0.00188879 0)
(8.09427 0.00184811 0)
(8.093 0.00180783 0)
(8.09176 0.00176792 0)
(8.09055 0.00172839 0)
(8.08936 0.00168923 0)
(8.0882 0.00165042 0)
(8.08706 0.00161196 0)
(8.08595 0.00157384 0)
(8.08487 0.00153607 0)
(8.08381 0.00149862 0)
(8.08278 0.0014615 0)
(8.08178 0.0014247 0)
(8.0808 0.00138821 0)
(8.07984 0.00135203 0)
(8.07891 0.00131616 0)
(8.078 0.00128058 0)
(8.07712 0.0012453 0)
(8.07626 0.00121032 0)
(8.07543 0.00117562 0)
(8.07461 0.0011412 0)
(8.07383 0.00110707 0)
(8.07306 0.00107321 0)
(8.07232 0.00103962 0)
(8.0716 0.00100631 0)
(8.0709 0.000973266 0)
(8.07023 0.000940488 0)
(8.06958 0.000907973 0)
(8.06895 0.00087572 0)
(8.06834 0.000843727 0)
(8.06775 0.000811992 0)
(8.06719 0.000780514 0)
(8.06665 0.00074929 0)
(8.06612 0.00071832 0)
(8.06562 0.000687602 0)
(8.06514 0.000657135 0)
(8.06468 0.000626919 0)
(8.06424 0.000596953 0)
(8.06382 0.000567235 0)
(8.06343 0.000537765 0)
(8.06305 0.000508543 0)
(8.06269 0.000479568 0)
(8.06235 0.000450841 0)
(8.06203 0.00042236 0)
(8.06173 0.000394125 0)
(8.06145 0.000366138 0)
(8.06118 0.000338396 0)
(8.06094 0.000310901 0)
(8.06071 0.000283653 0)
(8.06051 0.000256651 0)
(8.06032 0.000229896 0)
(8.06015 0.000203389 0)
(8.05999 0.000177128 0)
(8.05986 0.000151116 0)
(8.05974 0.000125351 0)
(8.05964 9.98347e-05 0)
(8.05956 7.45669e-05 0)
(8.05949 4.95479e-05 0)
(8.05944 2.47781e-05 0)
(8.05941 2.57956e-07 0)
(8.05939 -2.40123e-05 0)
(8.05939 -4.80324e-05 0)
(8.05941 -7.1802e-05 0)
(8.05944 -9.53208e-05 0)
(8.05949 -0.000118589 0)
(8.05956 -0.000141605 0)
(8.05964 -0.00016437 0)
(8.05973 -0.000186883 0)
(8.05984 -0.000209145 0)
(8.05997 -0.000231155 0)
(8.06011 -0.000252913 0)
(8.06026 -0.000274419 0)
(8.06043 -0.000295673 0)
(8.06061 -0.000316675 0)
(8.06081 -0.000337426 0)
(8.06102 -0.000357926 0)
(8.06125 -0.000378174 0)
(8.06149 -0.000398172 0)
(8.06174 -0.000417919 0)
(8.06201 -0.000437416 0)
(8.06228 -0.000456663 0)
(8.06258 -0.000475662 0)
(8.06288 -0.000494412 0)
(8.0632 -0.000512915 0)
(8.06353 -0.00053117 0)
(8.06387 -0.00054918 0)
(8.06422 -0.000566944 0)
(8.06459 -0.000584463 0)
(8.06497 -0.000601739 0)
(8.06536 -0.000618773 0)
(8.06576 -0.000635565 0)
(8.06617 -0.000652117 0)
(8.06659 -0.00066843 0)
(8.06703 -0.000684505 0)
(8.06747 -0.000700344 0)
(8.06793 -0.000715947 0)
(8.06839 -0.000731316 0)
(8.06887 -0.000746453 0)
(8.06935 -0.00076136 0)
(8.06985 -0.000776036 0)
(8.07036 -0.000790485 0)
(8.07087 -0.000804707 0)
(8.0714 -0.000818705 0)
(8.07193 -0.00083248 0)
(8.07248 -0.000846033 0)
(8.07303 -0.000859367 0)
(8.07359 -0.000872483 0)
(8.07416 -0.000885382 0)
(8.07474 -0.000898068 0)
(8.07533 -0.00091054 0)
(8.07593 -0.000922803 0)
(8.07653 -0.000934856 0)
(8.07715 -0.000946702 0)
(8.07777 -0.000958343 0)
(8.0784 -0.000969781 0)
(8.07903 -0.000981018 0)
(8.07968 -0.000992055 0)
(8.08033 -0.00100289 0)
(8.08099 -0.00101354 0)
(8.08165 -0.00102399 0)
(8.08233 -0.00103425 0)
(8.083 -0.00104431 0)
(8.08369 -0.00105419 0)
(8.08438 -0.00106389 0)
(8.08508 -0.0010734 0)
(8.08579 -0.00108273 0)
(8.0865 -0.00109187 0)
(8.08722 -0.00110084 0)
(8.08794 -0.00110963 0)
(8.08867 -0.00111825 0)
(8.08941 -0.00112669 0)
(8.09015 -0.00113496 0)
(8.0909 -0.00114306 0)
(8.09165 -0.001151 0)
(8.09241 -0.00115877 0)
(8.09317 -0.00116637 0)
(8.09394 -0.00117381 0)
(8.09472 -0.0011811 0)
(8.09549 -0.00118822 0)
(8.09628 -0.00119518 0)
(8.09706 -0.00120199 0)
(8.09786 -0.00120865 0)
(8.09865 -0.00121515 0)
(8.09945 -0.0012215 0)
(8.10026 -0.00122771 0)
(8.10107 -0.00123376 0)
(8.10188 -0.00123967 0)
(8.1027 -0.00124544 0)
(8.10352 -0.00125106 0)
(8.10435 -0.00125654 0)
(8.10518 -0.00126188 0)
(8.10601 -0.00126709 0)
(8.10684 -0.00127216 0)
(8.10768 -0.00127709 0)
(8.10853 -0.00128189 0)
(8.10937 -0.00128656 0)
(8.11022 -0.00129109 0)
(8.11107 -0.0012955 0)
(8.11193 -0.00129978 0)
(8.11279 -0.00130393 0)
(8.11365 -0.00130796 0)
(8.11451 -0.00131186 0)
(8.11538 -0.00131565 0)
(8.11625 -0.00131931 0)
(8.11712 -0.00132285 0)
(8.11799 -0.00132628 0)
(8.11887 -0.00132958 0)
(8.11974 -0.00133278 0)
(8.12062 -0.00133586 0)
(8.12151 -0.00133882 0)
(8.12239 -0.00134168 0)
(8.12328 -0.00134442 0)
(8.12417 -0.00134706 0)
(8.12506 -0.00134959 0)
(8.12595 -0.00135201 0)
(8.12684 -0.00135433 0)
(8.12774 -0.00135655 0)
(8.12863 -0.00135866 0)
(8.12953 -0.00136067 0)
(8.13043 -0.00136259 0)
(8.13133 -0.0013644 0)
(8.13223 -0.00136612 0)
(8.13313 -0.00136774 0)
(8.13404 -0.00136927 0)
(8.13494 -0.0013707 0)
(8.13585 -0.00137204 0)
(8.13675 -0.0013733 0)
(8.13766 -0.00137446 0)
(8.13857 -0.00137553 0)
(8.13948 -0.00137652 0)
(8.14039 -0.00137742 0)
(8.1413 -0.00137824 0)
(8.14221 -0.00137897 0)
(8.14312 -0.00137962 0)
(8.14404 -0.00138019 0)
(8.14495 -0.00138068 0)
(8.14586 -0.00138109 0)
(8.14677 -0.00138142 0)
(8.14769 -0.00138168 0)
(8.1486 -0.00138186 0)
(8.14951 -0.00138196 0)
(8.15043 -0.001382 0)
(8.15134 -0.00138196 0)
(8.15226 -0.00138185 0)
(8.15317 -0.00138167 0)
(8.15408 -0.00138142 0)
(8.155 -0.0013811 0)
(8.15591 -0.00138071 0)
(8.15682 -0.00138026 0)
(8.15774 -0.00137975 0)
(8.15865 -0.00137917 0)
(8.15956 -0.00137853 0)
(8.16047 -0.00137782 0)
(8.16138 -0.00137706 0)
(8.16229 -0.00137623 0)
(8.1632 -0.00137535 0)
(8.16411 -0.00137441 0)
(8.16502 -0.00137341 0)
(8.16593 -0.00137235 0)
(8.16684 -0.00137124 0)
(8.16775 -0.00137007 0)
(8.16865 -0.00136885 0)
(8.16956 -0.00136757 0)
(8.17046 -0.00136624 0)
(8.17137 -0.00136486 0)
(8.17227 -0.00136343 0)
(8.17317 -0.00136195 0)
(8.17407 -0.00136041 0)
(8.17497 -0.00135883 0)
(8.17587 -0.0013572 0)
(8.17677 -0.00135552 0)
(8.17767 -0.00135379 0)
(8.17856 -0.00135201 0)
(8.17946 -0.00135019 0)
(8.18035 -0.00134832 0)
(8.18124 -0.0013464 0)
(8.18213 -0.00134444 0)
(8.18302 -0.00134242 0)
(8.18391 -0.00134037 0)
(8.1848 -0.00133826 0)
(8.18568 -0.00133612 0)
(8.18657 -0.00133392 0)
(8.18745 -0.00133168 0)
(8.18833 -0.00132939 0)
(8.18921 -0.00132705 0)
(8.19009 -0.00132467 0)
(8.19096 -0.00132224 0)
(8.19184 -0.00131976 0)
(8.19271 -0.00131723 0)
(8.19358 -0.00131465 0)
(8.19445 -0.00131201 0)
(8.19532 -0.00130933 0)
(8.19619 -0.00130659 0)
(8.19705 -0.00130379 0)
(8.19792 -0.00130093 0)
(8.19878 -0.00129802 0)
(8.19964 -0.00129503 0)
(8.20049 -0.00129199 0)
(8.20135 -0.00128887 0)
(8.2022 -0.00128567 0)
(8.20305 -0.0012824 0)
(8.2039 -0.00127904 0)
(8.20475 -0.00127559 0)
(8.20559 -0.00127204 0)
(8.20643 -0.00126838 0)
(8.20727 -0.00126461 0)
(8.20811 -0.0012607 0)
(8.20894 -0.00125665 0)
(8.20977 -0.00125239 0)
(8.2106 -0.00124813 0)
(8.21143 -0.00124273 0)
(8.2122 -0.00124074 0)
(8.21331 -0.00121996 0)
(9.94546 0.725989 0)
(9.82597 0.524082 0)
(9.67686 0.393795 0)
(9.54203 0.299195 0)
(9.42458 0.230721 0)
(9.32183 0.183519 0)
(9.23371 0.150473 0)
(9.15852 0.126349 0)
(9.09364 0.108292 0)
(9.03704 0.0945004 0)
(8.98724 0.0837045 0)
(8.94303 0.0750517 0)
(8.90344 0.0679812 0)
(8.8677 0.0621064 0)
(8.83521 0.0571521 0)
(8.80548 0.0529197 0)
(8.77812 0.0492633 0)
(8.75282 0.0460734 0)
(8.7293 0.0432662 0)
(8.70736 0.0407766 0)
(8.68681 0.0385537 0)
(8.6675 0.0365564 0)
(8.6493 0.034752 0)
(8.6321 0.0331135 0)
(8.6158 0.0316188 0)
(8.60031 0.0302496 0)
(8.58557 0.0289905 0)
(8.57152 0.0278285 0)
(8.55809 0.0267526 0)
(8.54523 0.0257534 0)
(8.53291 0.0248228 0)
(8.52108 0.0239538 0)
(8.50971 0.0231404 0)
(8.49877 0.0223771 0)
(8.48823 0.0216594 0)
(8.47806 0.0209832 0)
(8.46824 0.0203449 0)
(8.45874 0.0197412 0)
(8.44956 0.0191694 0)
(8.44067 0.0186267 0)
(8.43206 0.0181111 0)
(8.4237 0.0176204 0)
(8.4156 0.0171527 0)
(8.40772 0.0167064 0)
(8.40007 0.01628 0)
(8.39264 0.0158721 0)
(8.3854 0.0154815 0)
(8.37836 0.015107 0)
(8.3715 0.0147476 0)
(8.36482 0.0144023 0)
(8.35831 0.0140703 0)
(8.35196 0.0137507 0)
(8.34576 0.0134429 0)
(8.33971 0.0131461 0)
(8.33381 0.0128596 0)
(8.32804 0.012583 0)
(8.32241 0.0123157 0)
(8.3169 0.0120572 0)
(8.31152 0.0118069 0)
(8.30626 0.0115646 0)
(8.30111 0.0113297 0)
(8.29607 0.0111019 0)
(8.29114 0.0108809 0)
(8.28631 0.0106663 0)
(8.28159 0.0104578 0)
(8.27696 0.0102551 0)
(8.27242 0.010058 0)
(8.26798 0.00986619 0)
(8.26363 0.00967943 0)
(8.25936 0.0094975 0)
(8.25518 0.0093202 0)
(8.25108 0.00914731 0)
(8.24706 0.00897867 0)
(8.24311 0.00881407 0)
(8.23924 0.00865337 0)
(8.23545 0.0084964 0)
(8.23172 0.008343 0)
(8.22807 0.00819305 0)
(8.22448 0.00804639 0)
(8.22097 0.0079029 0)
(8.21751 0.00776246 0)
(8.21412 0.00762496 0)
(8.21079 0.00749028 0)
(8.20753 0.00735832 0)
(8.20432 0.00722898 0)
(8.20117 0.00710216 0)
(8.19807 0.00697777 0)
(8.19504 0.00685573 0)
(8.19205 0.00673596 0)
(8.18912 0.00661837 0)
(8.18624 0.00650289 0)
(8.18342 0.00638945 0)
(8.18064 0.00627798 0)
(8.17792 0.00616841 0)
(8.17524 0.00606069 0)
(8.17261 0.00595474 0)
(8.17003 0.00585052 0)
(8.16749 0.00574796 0)
(8.165 0.00564702 0)
(8.16255 0.00554764 0)
(8.16014 0.00544977 0)
(8.15778 0.00535338 0)
(8.15546 0.0052584 0)
(8.15319 0.0051648 0)
(8.15095 0.00507254 0)
(8.14875 0.00498157 0)
(8.1466 0.00489186 0)
(8.14448 0.00480338 0)
(8.1424 0.00471608 0)
(8.14036 0.00462993 0)
(8.13835 0.0045449 0)
(8.13639 0.00446095 0)
(8.13446 0.00437806 0)
(8.13256 0.0042962 0)
(8.1307 0.00421534 0)
(8.12888 0.00413545 0)
(8.12709 0.0040565 0)
(8.12533 0.00397847 0)
(8.12361 0.00390134 0)
(8.12192 0.00382509 0)
(8.12026 0.00374968 0)
(8.11864 0.00367511 0)
(8.11705 0.00360134 0)
(8.11549 0.00352835 0)
(8.11396 0.00345614 0)
(8.11246 0.00338468 0)
(8.11099 0.00331395 0)
(8.10955 0.00324394 0)
(8.10814 0.00317463 0)
(8.10677 0.003106 0)
(8.10542 0.00303804 0)
(8.1041 0.00297073 0)
(8.1028 0.00290407 0)
(8.10154 0.00283803 0)
(8.10031 0.0027726 0)
(8.0991 0.00270778 0)
(8.09792 0.00264355 0)
(8.09677 0.0025799 0)
(8.09564 0.00251682 0)
(8.09454 0.00245429 0)
(8.09347 0.00239232 0)
(8.09242 0.00233088 0)
(8.0914 0.00226998 0)
(8.09041 0.0022096 0)
(8.08944 0.00214974 0)
(8.08849 0.00209038 0)
(8.08757 0.00203152 0)
(8.08668 0.00197316 0)
(8.08581 0.00191528 0)
(8.08496 0.00185789 0)
(8.08414 0.00180097 0)
(8.08334 0.00174453 0)
(8.08257 0.00168855 0)
(8.08182 0.00163303 0)
(8.08109 0.00157796 0)
(8.08039 0.00152335 0)
(8.0797 0.00146919 0)
(8.07905 0.00141548 0)
(8.07841 0.00136221 0)
(8.07779 0.00130938 0)
(8.0772 0.00125698 0)
(8.07663 0.00120502 0)
(8.07608 0.0011535 0)
(8.07556 0.0011024 0)
(8.07505 0.00105174 0)
(8.07457 0.0010015 0)
(8.0741 0.000951689 0)
(8.07366 0.000902302 0)
(8.07324 0.00085334 0)
(8.07284 0.000804802 0)
(8.07245 0.000756686 0)
(8.07209 0.000708993 0)
(8.07175 0.000661722 0)
(8.07143 0.000614872 0)
(8.07113 0.000568444 0)
(8.07084 0.000522437 0)
(8.07058 0.000476851 0)
(8.07033 0.000431687 0)
(8.0701 0.000386944 0)
(8.0699 0.000342623 0)
(8.06971 0.000298724 0)
(8.06953 0.000255247 0)
(8.06938 0.000212193 0)
(8.06924 0.000169562 0)
(8.06913 0.000127354 0)
(8.06902 8.55702e-05 0)
(8.06894 4.42103e-05 0)
(8.06887 3.27489e-06 0)
(8.06882 -3.72357e-05 0)
(8.06879 -7.73212e-05 0)
(8.06878 -0.000116981 0)
(8.06878 -0.000156215 0)
(8.06879 -0.000195023 0)
(8.06882 -0.000233405 0)
(8.06887 -0.000271361 0)
(8.06894 -0.00030889 0)
(8.06901 -0.000345993 0)
(8.06911 -0.000382669 0)
(8.06922 -0.00041892 0)
(8.06934 -0.000454744 2.80928e-103)
(8.06948 -0.000490142 -2.80915e-103)
(8.06964 -0.000525115 0)
(8.06981 -0.000559663 0)
(8.06999 -0.000593787 0)
(8.07018 -0.000627487 0)
(8.07039 -0.000660764 0)
(8.07062 -0.000693619 0)
(8.07086 -0.000726053 0)
(8.07111 -0.000758066 0)
(8.07137 -0.00078966 0)
(8.07165 -0.000820837 0)
(8.07194 -0.000851596 0)
(8.07224 -0.000881941 0)
(8.07256 -0.000911871 0)
(8.07288 -0.00094139 0)
(8.07322 -0.000970498 0)
(8.07358 -0.000999197 0)
(8.07394 -0.00102749 0)
(8.07431 -0.00105538 0)
(8.0747 -0.00108286 0)
(8.0751 -0.00110995 0)
(8.07551 -0.00113663 0)
(8.07593 -0.00116292 0)
(8.07636 -0.00118882 0)
(8.0768 -0.00121432 0)
(8.07725 -0.00123944 0)
(8.07771 -0.00126417 0)
(8.07818 -0.00128852 0)
(8.07867 -0.00131248 0)
(8.07916 -0.00133607 0)
(8.07966 -0.00135928 0)
(8.08017 -0.00138212 0)
(8.08069 -0.00140459 0)
(8.08122 -0.00142669 0)
(8.08176 -0.00144843 0)
(8.08231 -0.00146981 0)
(8.08287 -0.00149084 0)
(8.08343 -0.00151151 0)
(8.08401 -0.00153182 0)
(8.08459 -0.00155179 0)
(8.08518 -0.00157142 0)
(8.08578 -0.0015907 0)
(8.08638 -0.00160964 0)
(8.087 -0.00162825 0)
(8.08762 -0.00164653 0)
(8.08825 -0.00166448 0)
(8.08889 -0.0016821 0)
(8.08953 -0.0016994 0)
(8.09018 -0.00171638 0)
(8.09084 -0.00173304 0)
(8.09151 -0.0017494 0)
(8.09218 -0.00176544 0)
(8.09286 -0.00178117 0)
(8.09354 -0.00179661 0)
(8.09423 -0.00181174 0)
(8.09493 -0.00182658 0)
(8.09563 -0.00184112 0)
(8.09634 -0.00185537 0)
(8.09706 -0.00186933 0)
(8.09778 -0.00188301 0)
(8.09851 -0.00189641 0)
(8.09924 -0.00190953 0)
(8.09998 -0.00192237 0)
(8.10072 -0.00193494 0)
(8.10147 -0.00194724 0)
(8.10222 -0.00195927 0)
(8.10298 -0.00197104 0)
(8.10374 -0.00198255 0)
(8.10451 -0.0019938 0)
(8.10528 -0.00200479 0)
(8.10606 -0.00201553 0)
(8.10684 -0.00202603 0)
(8.10763 -0.00203627 0)
(8.10842 -0.00204627 0)
(8.10921 -0.00205602 0)
(8.11001 -0.00206554 0)
(8.11081 -0.00207482 0)
(8.11162 -0.00208387 0)
(8.11243 -0.00209268 0)
(8.11324 -0.00210127 0)
(8.11406 -0.00210963 0)
(8.11488 -0.00211776 0)
(8.1157 -0.00212567 0)
(8.11653 -0.00213337 0)
(8.11736 -0.00214084 0)
(8.1182 -0.00214811 0)
(8.11903 -0.00215516 0)
(8.11987 -0.002162 0)
(8.12071 -0.00216863 0)
(8.12156 -0.00217506 0)
(8.12241 -0.00218129 0)
(8.12326 -0.00218731 0)
(8.12411 -0.00219314 0)
(8.12497 -0.00219877 0)
(8.12582 -0.00220421 0)
(8.12668 -0.00220946 0)
(8.12755 -0.00221452 0)
(8.12841 -0.00221939 0)
(8.12928 -0.00222408 0)
(8.13015 -0.00222859 0)
(8.13102 -0.00223291 0)
(8.13189 -0.00223706 0)
(8.13276 -0.00224103 0)
(8.13364 -0.00224483 0)
(8.13452 -0.00224846 0)
(8.1354 -0.00225192 0)
(8.13628 -0.00225521 0)
(8.13716 -0.00225834 0)
(8.13804 -0.00226131 0)
(8.13893 -0.00226411 0)
(8.13981 -0.00226676 0)
(8.1407 -0.00226925 0)
(8.14159 -0.00227158 0)
(8.14248 -0.00227377 0)
(8.14337 -0.0022758 0)
(8.14426 -0.00227768 0)
(8.14515 -0.00227942 0)
(8.14604 -0.00228102 0)
(8.14693 -0.00228247 0)
(8.14783 -0.00228378 0)
(8.14872 -0.00228496 0)
(8.14962 -0.00228599 0)
(8.15051 -0.0022869 0)
(8.15141 -0.00228767 0)
(8.15231 -0.00228831 0)
(8.1532 -0.00228882 0)
(8.1541 -0.00228921 0)
(8.155 -0.00228947 0)
(8.15589 -0.00228961 0)
(8.15679 -0.00228963 0)
(8.15769 -0.00228953 0)
(8.15859 -0.00228931 0)
(8.15949 -0.00228897 0)
(8.16038 -0.00228852 0)
(8.16128 -0.00228796 0)
(8.16218 -0.00228729 0)
(8.16308 -0.00228651 0)
(8.16397 -0.00228562 0)
(8.16487 -0.00228463 0)
(8.16577 -0.00228353 0)
(8.16666 -0.00228233 0)
(8.16756 -0.00228103 0)
(8.16845 -0.00227963 0)
(8.16935 -0.00227813 0)
(8.17024 -0.00227654 0)
(8.17114 -0.00227485 0)
(8.17203 -0.00227307 0)
(8.17292 -0.00227119 0)
(8.17381 -0.00226923 0)
(8.17471 -0.00226717 0)
(8.1756 -0.00226502 0)
(8.17649 -0.00226279 0)
(8.17737 -0.00226047 0)
(8.17826 -0.00225807 0)
(8.17915 -0.00225558 0)
(8.18003 -0.00225301 0)
(8.18092 -0.00225035 0)
(8.1818 -0.00224762 0)
(8.18269 -0.0022448 0)
(8.18357 -0.0022419 0)
(8.18445 -0.00223893 0)
(8.18533 -0.00223587 0)
(8.18621 -0.00223274 0)
(8.18709 -0.00222953 0)
(8.18796 -0.00222624 0)
(8.18884 -0.00222287 0)
(8.18971 -0.00221943 0)
(8.19058 -0.00221591 0)
(8.19145 -0.00221231 0)
(8.19232 -0.00220863 0)
(8.19319 -0.00220487 0)
(8.19406 -0.00220104 0)
(8.19492 -0.00219713 0)
(8.19579 -0.00219313 0)
(8.19665 -0.00218906 0)
(8.19751 -0.0021849 0)
(8.19837 -0.00218066 0)
(8.19923 -0.00217633 0)
(8.20008 -0.00217191 0)
(8.20094 -0.0021674 0)
(8.20179 -0.00216279 0)
(8.20264 -0.00215809 0)
(8.20349 -0.00215329 0)
(8.20434 -0.00214837 0)
(8.20518 -0.00214335 0)
(8.20603 -0.00213821 0)
(8.20687 -0.00213295 0)
(8.20771 -0.00212755 0)
(8.20854 -0.00212201 0)
(8.20938 -0.00211632 0)
(8.21021 -0.00211047 0)
(8.21104 -0.00210444 0)
(8.21187 -0.00209821 0)
(8.21269 -0.00209177 0)
(8.21352 -0.0020851 0)
(8.21434 -0.00207813 0)
(8.21515 -0.0020709 0)
(8.21597 -0.00206289 0)
(8.21674 -0.00205543 0)
(8.21783 -0.00203907 0)
(9.95588 0.782308 0)
(9.89615 0.625112 0)
(9.80208 0.503554 0)
(9.70137 0.409243 0)
(9.60377 0.335327 0)
(9.51098 0.278483 0)
(9.42517 0.234872 0)
(9.34747 0.200928 0)
(9.2775 0.174177 0)
(9.21448 0.152874 0)
(9.15765 0.135686 0)
(9.10626 0.121623 0)
(9.05962 0.109968 0)
(9.01709 0.100191 0)
(8.97816 0.0918973 0)
(8.94235 0.0847895 0)
(8.90929 0.0786406 0)
(8.87865 0.073276 0)
(8.85014 0.0685594 0)
(8.82353 0.0643836 0)
(8.79862 0.0606629 0)
(8.77523 0.0573283 0)
(8.75321 0.054324 0)
(8.73242 0.0516039 0)
(8.71275 0.0491301 0)
(8.6941 0.046871 0)
(8.67639 0.0448 0)
(8.65952 0.0428948 0)
(8.64344 0.0411362 0)
(8.62809 0.039508 0)
(8.6134 0.0379962 0)
(8.59932 0.0365887 0)
(8.58583 0.035275 0)
(8.57286 0.034046 0)
(8.5604 0.0328936 0)