# p  FACE_DATA 11666
# x y z  p
0.0596589 0.0485184 0.00125 -37.1338
0.101562 0.0658665 0.00124988 -63.2298
0.134326 0.0763298 0.00125007 -72.4281
0.0156349 -0.00987769 0.00124999 -27.6853
0.00986925 -0.00870838 0.00875 -47.8018
0.015635 -0.00987629 0.00874999 -28.336
0.0241069 -0.0106137 0.00124999 -19.0068
0.0176922 -0.0101479 0.00874997 -38.2728
0.0241084 -0.0106006 0.00875 -17.6649
0.00763978 -0.00781489 0.00875 -24.1882
0.00249986 0.007756 0.00124998 71.3551
0.00249976 0.00775583 0.00875 71.0099
0.0100541 0.0171346 0.00125 29.1637
0.0100541 0.0171346 0.00875 28.8462
0.0346937 0.0353866 0.00125 -15.8154
0.0346936 0.0353866 0.00875 -16.0839
0.0515461 0.0446016 0.00125 -36.5503
0.0515461 0.0446016 0.00875 -36.7298
0.0596591 0.0485182 0.00875 -37.2363
0.0739278 0.0550046 0.00124997 -47.8639
0.0739295 0.0549989 0.00875 -48.9324
0.0761697 0.0559647 0.00125002 -46.2527
0.0761716 0.055959 0.00875 -44.5556
0.0992795 0.0650143 0.00125006 -58.7518
0.0992798 0.0650141 0.00875 -58.8713
0.124167 0.0734248 0.0012499 -79.0597
0.124168 0.0734247 0.00875 -79.2435
0.126 0.0739553 0.0012501 -79.9742
0.126001 0.0739544 0.00875 -80.1519
0.00348497 -0.00540105 0.00375 1.35054
0.00348498 -0.00540103 0.00125 -9.53221
0.00390561 0.00991142 0.00125001 63.9645
0.00390554 0.00991136 0.00375001 79.0471
0.0123385 0.0192647 0.00125 23.5117
0.0123385 0.0192647 0.00375 28.7047
0.0285313 0.0316828 0.00375 -20.0178
0.0285313 0.0316828 0.00125 -18.6527
0.0451676 0.0412112 0.00375 -25.7406
0.0618131 0.0495539 0.00374999 -39.1604
0.0596589 0.0485185 0.00375001 -37.4208
0.0783681 0.0569126 0.00125 -50.4817
0.0783681 0.0569126 0.00374999 -50.9961
0.0867428 0.0603561 0.00375001 -60.9119
0.101562 0.0658665 0.00375 -63.907
0.103292 0.0664919 0.00124992 -67.7607
0.103292 0.066492 0.00374999 -68.6971
0.111447 0.0692183 0.00375004 -67.7026
0.134325 0.0763333 0.00374992 -73.7081
0.136722 0.0770123 0.00124995 -68.2664
0.136721 0.0770159 0.00375005 -71.8524
0.145051 0.0793848 0.00375008 -75.4798
0.0156347 -0.00987844 0.00375 -35.0259
0.0136076 -0.00949862 0.00125 -29.8281
0.0136076 -0.00949862 0.00375 -37.6038
0.0176912 -0.0101618 0.00374995 -46.6463
0.0197529 -0.0103145 0.00125003 -29.3545
0.0197524 -0.0103197 0.00375004 -38.5699
0.0241068 -0.0106201 0.00374998 -25.8591
0.0217146 -0.0104413 0.00125002 -21.7094
0.0217143 -0.0104492 0.00375006 -29.5468
0.0282211 -0.0108018 0.00375 -28.1676
0.0302103 -0.0108156 0.00375 -21.9506
0.0076396 -0.0078153 0.00375001 -26.0196
0.00547024 -0.00679722 0.00125 -41.2664
0.00143952 -0.00309457 0.00125002 38.3786
0.00249975 0.00775596 0.00374998 89.8656
0.0058448 0.0124572 0.00375 61.1488
0.0079031 0.0148477 0.00375 54.2708
0.0100541 0.0171346 0.00375 36.0019
0.0141149 0.0208497 0.00374999 27.2853
0.0201896 0.0257898 0.00125 4.67947
0.0326383 0.0341513 0.00375 -12.4875
0.0346936 0.0353866 0.00375 -16.2249
0.0367466 0.0366202 0.00125 -19.7301
0.0367466 0.0366202 0.00375 -20.6554
0.0515461 0.0446016 0.00374999 -36.8643
0.0531428 0.0453811 0.00125 -38.8669
0.0639772 0.0505932 0.00375 -41.7569
0.0700375 0.053339 0.00125 -44.8513
0.0739264 0.0550072 0.00374994 -48.4905
0.0722766 0.0543039 0.00125 -45.9985
0.0761684 0.0559673 0.00375005 -48.0016
0.0805723 0.0578565 0.00125 -52.7374
0.0805723 0.0578565 0.00375 -53.4913
0.0930067 0.0626838 0.00125 -55.6638
0.0952866 0.0635344 0.00125 -57.843
0.099279 0.0650161 0.00375 -60.1033
0.0969659 0.0641545 0.00125 -59.3443
0.105094 0.0670986 0.0012501 -69.2157
0.105092 0.0671034 0.0037499 -70.2219
0.113773 0.0699913 0.00374998 -65.4632
0.120117 0.072101 0.00374998 -69.7988
0.120118 0.0720993 0.00125 -67.1434
0.124167 0.0734249 0.00375 -80.836
0.12242 0.0728681 0.00125 -72.3884
0.125998 0.0739606 0.00374987 -80.5854
0.128392 0.0746367 0.00125 -67.6151
0.139046 0.0776819 0.00375 -75.7366
0.0156348 -0.00987736 0.00625 -35.4121
0.0136075 -0.00949862 0.00875 -30.3885
0.0136075 -0.00949862 0.00625 -37.9334
0.0176916 -0.0101555 0.00624994 -47.2104
0.0197534 -0.0103035 0.00875 -28.6768
0.0197528 -0.0103122 0.00625 -38.0159
0.0241076 -0.0106114 0.00625002 -25.1975
0.0217161 -0.0104253 0.00874999 -22.7707
0.0217152 -0.0104383 0.00625004 -30.279
0.0282212 -0.0108018 0.00624999 -28.4614
0.0302103 -0.0108155 0.00625 -22.1135
0.00348497 -0.00540105 0.00625 0.849164
0.00348498 -0.00540103 0.00875 -10.2226
0.00763959 -0.00781529 0.00625 -26.3541
0.00547019 -0.00679721 0.00875 -41.8569
0.00249971 0.0077559 0.00624999 89.5385
0.00390549 0.00991128 0.00625 78.7497
0.00584477 0.0124572 0.00625 60.9032
0.00790308 0.0148476 0.00875 43.2672
0.0100541 0.0171346 0.00625001 35.7913
0.0123385 0.0192647 0.00624999 28.4876
0.0141149 0.0208497 0.00625001 27.0322
0.0158688 0.0224099 0.00874999 15.7207
0.0182596 0.0243548 0.00874999 0.903486
0.0201895 0.0257898 0.00875 4.31524
0.0285313 0.0316828 0.00625 -20.1462
0.0285313 0.0316829 0.00875 -18.9551
0.0326383 0.0341513 0.00875 -12.2498
0.0346936 0.0353866 0.00625 -16.3764
0.0367466 0.0366202 0.00875 -19.9691
0.0367466 0.0366202 0.00625 -20.7785
0.0409383 0.038949 0.00625 -24.6855
0.0451676 0.0412112 0.00625 -25.8498
0.0451676 0.0412112 0.00875 -24.9351
0.0515461 0.0446016 0.00625 -36.9475
0.0531429 0.0453804 0.00875 -39.119
0.0553392 0.0464351 0.00875 -32.3255
0.0618131 0.0495539 0.00624999 -39.2592
0.059659 0.0485184 0.00625 -37.4812
0.0639771 0.0505932 0.00625 -41.8509
0.0739276 0.0550035 0.00624998 -49.1276
0.0722765 0.0543039 0.00875 -46.3333
0.0761697 0.0559636 0.00625003 -47.2411
0.0867429 0.060356 0.00625 -60.9273
0.0930069 0.0626832 0.00875001 -55.5606
0.0952867 0.0635344 0.00875 -58.0377
0.0992791 0.065016 0.00625 -60.1723
0.096966 0.0641543 0.00875 -59.575
0.107436 0.0678759 0.00625005 -61.394
0.111447 0.0692181 0.00624994 -68.1246
0.113773 0.0699911 0.00625004 -65.4302
0.120117 0.0721009 0.00625003 -69.8276
0.124167 0.0734248 0.00625009 -80.9281
0.122419 0.0728681 0.00875 -72.5306
0.125999 0.0739601 0.00624999 -80.6619
0.128392 0.074636 0.00875 -67.5155
0.128391 0.0746415 0.00624997 -70.6612
0.139047 0.0776819 0.00625 -76.1442
0.145051 0.0793845 0.00625001 -75.4083
0.00986926 -0.00870838 0.00124999 -47.3013
0.0076398 -0.00781489 0.00125 -23.6909
0.0176917 -0.0101574 0.00125007 -37.4079
0.000200385 0.00101878 0.00124999 90.12
0.0265126 0.0304203 0.00125 -15.1563
0.0409383 0.038949 0.00125002 -23.335
0.0430512 0.0400793 0.00124999 -22.8222
0.0844473 0.0594811 0.00125001 -63.9268
0.109733 0.0686517 0.00125 -64.3813
0.142658 0.0786991 0.00125 -76.525
0.0264126 -0.0107599 0.00124996 -23.5995
0.0264128 -0.0107599 0.00875 -24.3538
0.00030057 -0.000910135 0.00124996 68.865
0.000300479 -0.00090986 0.00875 68.18
0.00143944 -0.00309431 0.00875 37.5953
0.000200372 0.00101871 0.00875 89.5909
0.0245666 0.0290269 0.00125 -3.84021
0.0220896 0.0271946 0.00125 3.79628
0.0245669 0.0290265 0.00875 -4.0742
0.0220899 0.0271942 0.00875 3.4354
0.0265126 0.0304203 0.00875 -15.4766
0.0409384 0.0389488 0.00875 -23.4924
0.0430512 0.0400793 0.00875 -23.0415
0.0574973 0.0474804 0.00125 -35.8438
0.055339 0.0464357 0.00125 -32.3262
0.0574975 0.0474802 0.00875 -36.0655
0.082793 0.0588075 0.00124999 -56.0551
0.082793 0.0588075 0.00875 -56.1514
0.0844474 0.0594808 0.00875 -64.0606
0.107436 0.0678775 0.00124998 -59.136
0.101562 0.0658665 0.00875 -63.6186
0.107439 0.067868 0.00875 -55.6519
0.109734 0.0686517 0.00875 -65.741
0.132483 0.0758129 0.00125 -72.3338
0.132483 0.0758129 0.00875 -72.7025
0.134327 0.0763232 0.00875 -73.8432
0.140815 0.0781855 0.00125 -73.7406
0.140816 0.0781855 0.00875 -74.2731
0.142658 0.0786984 0.00875 -76.7433
0.00986924 -0.00870838 0.00375 -57.2346
0.011654 -0.00912788 0.00125001 -45.6665
0.0116539 -0.00912788 0.00374999 -56.4092
0.000200379 0.00101875 0.00374999 120.731
0.0013868 0.00543825 0.00125 85.5495
0.000586819 0.00298345 0.00125 92.4927
0.000586809 0.0029834 0.00375 119.356
0.0158685 0.0224104 0.00124999 16.0848
0.0182592 0.0243553 0.00125003 1.12283
0.0158681 0.0224108 0.00375001 19.8221
0.0182589 0.0243556 0.00374999 1.96906
0.0265126 0.0304203 0.00374999 -15.2984
0.0430512 0.0400793 0.00375 -23.8701
0.0409382 0.0389491 0.00375 -24.612
0.0451676 0.0412112 0.00125 -24.7323
0.0618131 0.0495539 0.00125 -38.7459
0.0700363 0.0533415 0.00375 -46.7167
0.0677828 0.0523723 0.00125 -53.8609
0.0677816 0.0523749 0.00374999 -52.7844
0.0844463 0.0594837 0.00375001 -63.5315
0.0867438 0.0603536 0.00125 -59.5263
0.109733 0.0686517 0.00375 -67.0437
0.107435 0.0678823 0.00375006 -63.1899
0.111448 0.0692157 0.00125 -65.4062
0.117778 0.0713216 0.00125 -67.9564
0.117778 0.0713233 0.00375003 -69.0213
0.142656 0.0787041 0.00374996 -77.2861
0.145053 0.0793798 0.00125 -72.419
0.0264127 -0.0107599 0.00374998 -30.5058
0.0282212 -0.0108018 0.00125 -22.1641
0.0302103 -0.0108155 0.00125 -17.2947
0.00547002 -0.00679765 0.00374999 -41.8339
0.00143948 -0.00309443 0.00375002 63.4358
0.000300522 -0.00090999 0.00374997 100.813
0.00138673 0.00543826 0.00375 107.082
0.00584483 0.0124572 0.00125 49.7823
0.00790312 0.0148477 0.00125 43.6041
0.014115 0.0208496 0.00125 21.5813
0.0201895 0.0257898 0.00374999 5.99075
0.0220894 0.0271949 0.00375001 5.15597
0.0245664 0.0290271 0.00375 -2.72313
0.0305852 0.0329173 0.00375 -13.2721
0.0326383 0.0341513 0.00125 -11.9846
0.0305852 0.0329173 0.00125 -11.9766
0.0388237 0.0378181 0.00124998 -27.9397
0.0388236 0.0378182 0.00375 -29.1392
0.0472819 0.042342 0.00375 -28.1356
0.0493989 0.0434742 0.00125 -30.5118
0.0493989 0.0434743 0.00375001 -31.0117
0.0472819 0.042342 0.00125 -27.2293
0.053141 0.0453847 0.00374996 -39.0877
0.0553372 0.0464394 0.00375002 -34.283
0.0574973 0.0474805 0.00374999 -35.9899
0.0639772 0.0505932 0.00125 -41.4465
0.0661609 0.0516418 0.00125 -45.3773
0.0661609 0.0516419 0.00375 -45.4148
0.0722765 0.0543039 0.00374998 -46.8683
0.082793 0.0588075 0.00375 -56.8802
0.0890204 0.0612055 0.00374999 -57.2011
0.0906999 0.0618265 0.00125 -56.9848
0.0906997 0.0618269 0.00375 -57.4687
0.0890204 0.0612055 0.00125 -56.7321
0.0930065 0.0626842 0.00375001 -57.168
0.0952866 0.0635343 0.00374999 -59.0663
0.0969653 0.0641562 0.00375 -59.9803
0.113774 0.0699888 0.00125 -62.6169
0.116073 0.0707587 0.00125 -66.5697
0.116073 0.0707587 0.00375 -67.6906
0.12242 0.0728681 0.00375 -74.6368
0.128391 0.0746419 0.00375006 -70.6916
0.132483 0.0758129 0.00375 -73.503
0.130713 0.075309 0.00125 -73.0073
0.130714 0.075309 0.00375 -73.4365
0.140816 0.0781856 0.00375 -76.0167
0.139046 0.0776818 0.00125 -73.1857
0.147379 0.080025 0.00374988 -85.3354
0.149162 0.0804761 0.00125 -78.5143
0.149162 0.080476 0.00375 -79.9462
0.147379 0.0800251 0.00125 -85.0293
0.0264128 -0.0107599 0.00625001 -30.8166
0.0282212 -0.0108017 0.00875 -22.9357
0.0302103 -0.0108155 0.00875 -17.6865
0.00986925 -0.00870838 0.00625 -57.5095
0.0116539 -0.00912788 0.00875 -46.1928
0.0116539 -0.00912788 0.00625 -56.6609
0.00547 -0.00679764 0.00625 -42.2586
0.00143945 -0.00309434 0.00625001 62.8507
0.000300489 -0.000909893 0.00624999 100.238
0.000200374 0.00101872 0.00625 120.242
0.00138678 0.00543818 0.00875 85.1851
0.000586798 0.00298335 0.00875 92.0402
0.00138672 0.00543824 0.00625 106.72
0.000586801 0.00298336 0.00625 118.922
0.00390549 0.00991123 0.00875 63.6089
0.00584478 0.0124572 0.00875 49.4616
0.00790308 0.0148477 0.00624999 54.0171
0.0123384 0.0192647 0.00875 23.1634
0.0158684 0.0224104 0.00625 19.585
0.0141149 0.0208496 0.00875 21.2068
0.0182593 0.0243552 0.00625 1.85829
0.0201895 0.0257898 0.00624999 5.77863
0.0220896 0.0271946 0.00625001 4.94929
0.0245666 0.0290269 0.00625 -2.84714
0.0265127 0.0304203 0.00625 -15.4566
0.0305852 0.0329173 0.00625 -13.4226
0.0326383 0.0341513 0.00625 -12.627
0.0305852 0.0329173 0.00875 -12.2878
0.0388238 0.0378178 0.00875 -28.1847
0.0388237 0.0378181 0.00625 -29.2504
0.0430512 0.0400793 0.00625 -23.9875
0.0472819 0.042342 0.00625 -28.2501
0.049399 0.0434743 0.00875 -30.6913
0.049399 0.0434742 0.00625 -31.1134
0.0472819 0.042342 0.00875 -27.4212
0.053141 0.0453844 0.00625 -39.2013
0.0553373 0.0464391 0.00625001 -34.3085
0.0574974 0.0474803 0.00625 -36.1023
0.0618132 0.0495539 0.00875 -38.9128
0.0639771 0.0505931 0.00875 -41.6006
0.0661609 0.0516419 0.00874999 -45.5426
0.066161 0.0516419 0.00625 -45.5128
0.0700363 0.0533413 0.00625001 -46.807
0.0677828 0.052372 0.00875001 -54.0841
0.0677817 0.0523748 0.00624999 -52.8762
0.0700375 0.0533386 0.00875 -45.0026
0.0722764 0.0543039 0.00625 -47.0521
0.0783681 0.0569126 0.00875 -51.109
0.0783681 0.0569126 0.00625 -51.171
0.0805723 0.0578565 0.00875 -53.1878
0.0805723 0.0578565 0.00625 -53.6886
0.082793 0.0588075 0.00625 -56.9484
0.0844464 0.0594835 0.00624997 -63.5954
0.0867439 0.0603532 0.00875 -59.5464
0.0890205 0.0612055 0.00625 -57.277
0.0907001 0.0618259 0.00874999 -57.2195
0.0906999 0.0618264 0.00625 -57.6127
0.0890204 0.0612055 0.00875 -56.8791
0.0930067 0.0626838 0.00625 -57.0953
0.0952866 0.0635343 0.00625 -59.154
0.0969653 0.0641562 0.00625 -60.0962
0.101562 0.0658665 0.00625 -64.1382
0.103292 0.0664918 0.00874999 -68.2326
0.103292 0.0664919 0.00625 -68.9894
0.105096 0.0670889 0.00875001 -71.2056
0.105094 0.067097 0.00624998 -71.4521
0.109733 0.0686517 0.00625 -67.5621
0.111447 0.0692154 0.00875 -66.2628
0.113773 0.0699884 0.00875 -62.5015
0.116073 0.0707587 0.00875 -66.7441
0.116073 0.0707587 0.00625 -67.7507
0.117778 0.0713215 0.00875 -68.1653
0.117778 0.0713233 0.00624996 -69.1118
0.120118 0.0720992 0.00875 -67.1944
0.12242 0.0728681 0.00625 -74.7023
0.132483 0.0758129 0.00625 -73.7235
0.130713 0.075309 0.00875 -73.3975
0.130713 0.0753091 0.00625 -73.6393
0.134326 0.0763288 0.00624998 -74.6156
0.136724 0.0770058 0.00875 -65.7942
0.136722 0.0770114 0.00625004 -70.5231
0.140816 0.0781855 0.00625 -76.2968
0.139046 0.0776819 0.00875 -74.177
0.142656 0.0787038 0.00625 -77.4029
0.145053 0.0793791 0.00875 -72.2686
0.14738 0.0800251 0.00625 -85.389
0.149162 0.080476 0.00875 -78.6886
0.149162 0.0804761 0.00625 -80.0235
0.14738 0.080025 0.00875 -85.1795
0.0490523 -0.010642 0.00125001 5.03693
0.049052 -0.010642 0.00874999 3.15012
0.0490521 -0.010642 0.00375001 -2.50437
0.046909 -0.0106865 0.00374992 -2.00182
0.049052 -0.010642 0.00625001 -9.37309
0.0469091 -0.0106865 0.00875 2.97894
0.0469091 -0.0106865 0.00624997 -4.14556
0.551041 0.00119257 0 27.868
0.559375 0.00119249 0 28.2375
0.567708 0.00119252 0 28.5904
0.567708 0.0107194 0 29.0924
0.576042 0.00119259 0 28.9185
0.576041 0.0107218 0 29.4083
0.576021 0.0204946 0 29.8029
0.584375 0.00119258 0 29.2305
0.584374 0.0107217 0 29.7261
0.584355 0.0205525 0 30.0645
0.592709 0.00119253 0 29.5304
0.592708 0.0107159 0 30.0389
0.592705 0.0202704 0 30.3354
0.551041 0.00119257 0.01 27.8687
0.559375 0.0011925 0.01 28.2346
0.567708 0.00119252 0.01 28.5867
0.567708 0.0107193 0.01 29.0828
0.576042 0.0011926 0.01 28.917
0.576041 0.0107217 0.01 29.4103
0.576024 0.020507 0.01 29.7948
0.584375 0.00119259 0.01 29.2317
0.584374 0.0107215 0.01 29.7353
0.584355 0.0205506 0.01 30.1073
0.592709 0.00119254 0.01 29.531
0.592708 0.0107159 0.01 30.0411
0.592705 0.0202704 0.01 30.2917
0.551041 -0.00114394 0 27.7088
0.557292 -0.00114396 0 27.9836
0.559375 -0.00114396 0 28.0748
0.565625 -0.00114396 0 28.3386
0.567708 -0.00114396 0 28.4248
0.573959 -0.00114412 0 28.6723
0.573955 0.0204681 0 29.5455
0.576041 -0.00114412 0 28.7533
0.582292 -0.00114412 0 28.9882
0.582273 0.0205724 0 30.0546
0.584375 -0.00114412 0 29.0658
0.590625 -0.00114413 0 29.291
0.590744 0.0263698 0 30.2613
0.590616 0.0203182 0 30.2601
0.592708 -0.00114414 0 29.3653
0.592779 0.026369 0 30.5419
0.557292 -0.00114383 0.01 27.982
0.551041 -0.0011438 0.01 27.7096
0.565625 -0.00114382 0.01 28.3355
0.559375 -0.00114383 0.01 28.0728
0.573959 -0.00114387 0.01 28.6701
0.567708 -0.00114382 0.01 28.4219
0.57395 0.0204816 0.01 29.5989
0.582292 -0.00114387 0.01 28.988
0.576041 -0.00114387 0.01 28.7518
0.582274 0.0205703 0.01 30.0427
0.590625 -0.00114389 0.01 29.2912
0.584375 -0.00114387 0.01 29.0661
0.590616 0.0203179 0.01 30.2367
0.590748 0.0263839 0.01 30.4304
0.592708 -0.00114389 0.01 29.3655
0.592771 0.0263899 0.01 30.3144
0.576042 0.00833589 0 29.2989
0.582291 0.00833604 0 29.5363
0.582291 0.00119259 0 29.1535
0.584375 0.00833572 0 29.6158
0.590625 0.00833435 0 29.8491
0.590625 0.00119254 0 29.4566
0.592708 0.00833392 0 29.9258
0.582291 0.0011926 0.01 29.1541
0.582291 0.00833598 0.01 29.5411
0.576042 0.00833583 0.01 29.2987
0.590625 0.00119255 0.01 29.4576
0.590625 0.00833432 0.01 29.8526
0.584375 0.00833567 0.01 29.6212
0.592708 0.00833391 0.01 29.927
0.573942 0.0250296 0 29.8945
0.571869 0.0248846 0 29.5835
0.578125 -0.00114366 0 28.8324
0.578125 -0.00309124 0 28.675
0.576041 -0.00309272 0 28.5974
0.582292 -0.00309272 0 28.8288
0.580209 -0.00309124 0 28.7513
0.580209 -0.00114366 0 28.9103
0.578093 0.025177 0 29.8918
0.576016 0.0251248 0 29.6706
0.582275 0.0254495 0 30.1929
0.58016 0.0253227 0 29.6544
0.586458 -0.00114367 0 29.1416
0.586458 -0.00309125 0 28.9797
0.584375 -0.00309273 0 28.9056
0.590625 -0.00309273 0 29.1268
0.588542 -0.00309125 0 29.0525
0.588542 -0.00114368 0 29.2162
0.586364 0.0254581 0 29.9494
0.584312 0.0254866 0 29.7259
0.590633 0.0248887 0 30.3175
0.588415 0.0252343 0 30.4834
0.588893 0.0264646 0 30.5133
0.594791 -0.00114369 0 29.4379
0.594791 -0.00309125 0 29.2709
0.592708 -0.00309273 0 29.2002
0.596875 -0.00309125 0 29.3402
0.596875 -0.00114369 0 29.509
0.592726 0.0247326 0 30.4919
0.551041 0.00833624 0 28.2148
0.557291 0.00833409 0 28.5049
0.557292 0.00119249 0 28.1458
0.559375 0.00833412 0 28.6046
0.565625 0.00833479 0 28.8859
0.565625 0.00119251 0 28.5045
0.567709 0.00833504 0 28.9739
0.573958 0.00833581 0 29.2202
0.573958 0.00119259 0 28.8384
0.567704 0.0179395 0 29.4238
0.573952 0.0179734 0 29.5774
0.573958 0.0107211 0 29.3317
0.576042 0.0035717 0 29.0555
0.578125 0.00357171 0 29.1351
0.578125 0.00119257 0 28.9977
0.576035 0.017984 0 29.6757
0.582284 0.0180013 0 29.917
0.582291 0.0107224 0 29.6454
0.576024 0.0229785 0 29.7813
0.578099 0.0230199 0 29.6843
0.578119 0.0205171 0 29.6876
0.584375 0.00357169 0 29.3699
0.586458 0.00357164 0 29.4471
0.586459 0.00119255 0 29.3067
0.584367 0.0179915 0 30.0057
0.590621 0.0178984 0 30.2355
0.590625 0.0107171 0 29.9613
0.584345 0.0231664 0 29.9386
0.586414 0.0230751 0 30.2382
0.586437 0.0204932 0 30.1577
0.592708 0.0035715 0 29.6739
0.594791 0.00357147 0 29.7481
0.594792 0.0011925 0 29.6033
0.592707 0.0178763 0 30.3165
0.592696 0.0226206 0 30.4676
0.557292 0.0011925 0.01 28.1435
0.557291 0.00833407 0.01 28.4957
0.551041 0.00833618 0.01 28.212
0.565625 0.00119251 0.01 28.5006
0.565625 0.00833475 0.01 28.8776
0.559375 0.0083341 0.01 28.595
0.573958 0.00119259 0.01 28.836
0.573958 0.00833575 0.01 29.218
0.567709 0.008335 0.01 28.9665
0.573958 0.010721 0.01 29.3307
0.573952 0.0179726 0.01 29.5825
0.567704 0.0179389 0.01 29.3993
0.578125 0.00119258 0.01 28.997
0.578125 0.0035717 0.01 29.1348
0.576042 0.00357169 0.01 29.0542
0.582291 0.0107223 0.01 29.6541
0.582284 0.0180004 0.01 29.929
0.576035 0.0179831 0.01 29.6789
0.578114 0.0205298 0.01 29.7772
0.578102 0.0230407 0.01 29.7755
0.576024 0.022987 0.01 29.8796
0.586459 0.00119256 0.01 29.3081
0.586458 0.00357164 0.01 29.4494
0.584375 0.00357168 0.01 29.372
0.590625 0.0107171 0.01 29.9675
0.590621 0.0178981 0.01 30.236
0.584367 0.0179906 0.01 30.0231
0.586437 0.0204916 0.01 30.2495
0.586411 0.0231199 0.01 30.4061
0.584351 0.0231886 0.01 30.0188
0.594792 0.00119251 0.01 29.6033
0.594791 0.00357147 0.01 29.7479
0.592708 0.0035715 0.01 29.6748
0.592707 0.0178762 0.01 30.2986
0.5927 0.0226377 0.01 30.3712
0.553125 -0.00114371 0 27.801
0.553125 -0.00309131 0 27.6597
0.551041 -0.0030926 0 27.5698
0.557292 -0.00309261 0 27.8394
0.555209 -0.00309131 0 27.7487
0.555209 -0.00114372 0 27.8922
0.561458 -0.00114373 0 28.164
0.561458 -0.00309131 0 28.016
0.559375 -0.00309261 0 27.9294
0.565625 -0.00309261 0 28.188
0.563542 -0.00309131 0 28.1014
0.563542 -0.00114372 0 28.2516
0.569791 -0.00114372 0 28.5087
0.569791 -0.00309131 0 28.3551
0.567708 -0.00309261 0 28.2733
0.573959 -0.00309273 0 28.517
0.571875 -0.00309125 0 28.4356
0.571875 -0.00114367 0 28.5906
0.571856 0.020444 0 29.724
0.571871 0.022848 0 29.7111
0.573942 0.0229232 0 29.7112
0.580191 0.0205658 0 29.8652
0.580192 0.0231514 0 29.6877
0.582254 0.0231967 0 30.3119
0.588524 0.0204022 0 30.2493
0.588506 0.0229095 0 30.4444
0.590606 0.0227487 0 30.3547
0.555209 -0.00114359 0.01 27.8918
0.555209 -0.00309047 0.01 27.7494
0.557292 -0.00309177 0.01 27.8383
0.551041 -0.00309176 0.01 27.5708
0.553125 -0.00309047 0.01 27.6611
0.553125 -0.00114358 0.01 27.8014
0.563542 -0.00114359 0.01 28.2491
0.563542 -0.00309047 0.01 28.1001
0.565625 -0.00309177 0.01 28.1854
0.559375 -0.00309177 0.01 27.928
0.561458 -0.00309047 0.01 28.0152
0.561458 -0.00114359 0.01 28.162
0.571875 -0.00114353 0.01 28.5885
0.571875 -0.00309041 0.01 28.4343
0.573959 -0.00309178 0.01 28.5149
0.567708 -0.00309177 0.01 28.2709
0.569791 -0.00309047 0.01 28.3538
0.569791 -0.00114358 0.01 28.5063
0.573941 0.0229322 0.01 29.6527
0.571866 0.0228715 0.01 29.6727
0.57186 0.020457 0.01 29.6881
0.571866 0.0249236 0.01 29.6519
0.573942 0.0250429 0.01 29.5481
0.580209 -0.00114352 0.01 28.9101
0.580209 -0.00309041 0.01 28.7512
0.582292 -0.00309178 0.01 28.8281
0.576041 -0.00309178 0.01 28.5958
0.578125 -0.00309041 0.01 28.6747
0.578125 -0.00114352 0.01 28.8319
0.582258 0.0231803 0.01 30.1587
0.580188 0.0231388 0.01 29.7627
0.580191 0.0205637 0.01 29.903
0.580165 0.0253423 0.01 29.8014
0.582266 0.0254528 0.01 29.8709
0.576014 0.025138 0.01 30.0349
0.578092 0.0252146 0.01 29.9174
0.588542 -0.00114354 0.01 29.2171
0.588542 -0.00309041 0.01 29.0534
0.590625 -0.00309179 0.01 29.1265
0.584375 -0.00309178 0.01 28.9054
0.586458 -0.00309041 0.01 28.9806
0.586458 -0.00114353 0.01 29.1426
0.590606 0.0227486 0.01 30.2763
0.5885 0.02293 0.01 30.5305
0.588524 0.0204013 0.01 30.2951
0.588891 0.0265043 0.01 30.3778
0.588419 0.0252804 0.01 30.5351
0.590628 0.024901 0.01 30.1378
0.584305 0.0255289 0.01 30.1384
0.586363 0.0255338 0.01 30.0555
0.596875 -0.00114355 0.01 29.5083
0.596875 -0.00309041 0.01 29.3399
0.592708 -0.00309179 0.01 29.1999
0.594791 -0.00309041 0.01 29.2711
0.594791 -0.00114354 0.01 29.438
0.592723 0.0247675 0.01 30.3537
0.578125 0.00833593 0 29.3778
0.578125 0.00595326 0 29.2647
0.576042 0.00595322 0 29.1855
0.582291 0.00595326 0 29.4221
0.580209 0.00595328 0 29.3436
0.580208 0.00833619 0 29.457
0.580208 0.00119257 0 29.0759
0.580209 0.00357172 0 29.2139
0.582291 0.00357171 0 29.2922
0.586458 0.00833551 0 29.6946
0.586458 0.00595306 0 29.5781
0.584375 0.00595319 0 29.5004
0.590625 0.00595272 0 29.7311
0.588541 0.00595289 0 29.6549
0.588541 0.00833488 0 29.7722
0.588541 0.00119254 0 29.3819
0.588541 0.00357159 0 29.5235
0.590625 0.00357154 0 29.5991
0.594791 0.00833366 0 30.0025
0.594791 0.0059525 0 29.8818
0.592708 0.00595259 0 29.8067
0.596875 0.00595246 0 29.9561
0.596875 0.00833354 0 30.0788
0.596875 0.00119249 0 29.6752
0.596875 0.00357145 0 29.8214
0.582291 0.0035717 0.01 29.2937
0.580208 0.0035717 0.01 29.2147
0.580208 0.00119258 0.01 29.076
0.580208 0.00833613 0.01 29.4607
0.580209 0.00595326 0.01 29.3457
0.582291 0.00595323 0.01 29.4253
0.576042 0.0059532 0.01 29.1846
0.578125 0.00595324 0.01 29.2653
0.578125 0.00833587 0.01 29.3797
0.590625 0.00357154 0.01 29.6007
0.588541 0.00357159 0.01 29.5257
0.588541 0.00119255 0.01 29.3833
0.588541 0.00833484 0.01 29.7772
0.588541 0.00595288 0.01 29.6587
0.590625 0.00595271 0.01 29.734
0.584375 0.00595316 0.01 29.5042
0.586458 0.00595304 0.01 29.5821
0.586458 0.00833546 0.01 29.7001
0.596875 0.00357146 0.01 29.8198
0.596875 0.0011925 0.01 29.6742
0.596875 0.00833354 0.01 30.0751
0.596875 0.00595246 0.01 29.9543
0.592708 0.00595258 0.01 29.8083
0.594791 0.0059525 0.01 29.8817
0.594791 0.00833365 0.01 30.0011
0.101093 -0.00919501 0 1.41584
0.109385 -0.00876016 0 4.32679
0.117693 -0.00822008 0 6.17484
0.125998 -0.00774877 0 6.73864
0.134271 -0.00743849 0 6.97881
0.142702 -0.00798999 0 8.3417
0.151032 -0.00777377 0 8.6021
0.15934 -0.00740347 0 9.11278
0.16766 -0.00718291 0 9.12616
0.176018 -0.0076363 0 9.85493
0.184371 -0.00773988 0 10.4135
0.192684 -0.00761805 0 10.8174
0.201019 -0.00747914 0 11.0924
0.209366 -0.00775086 0 11.2875
0.217709 -0.00781607 0 11.9506
0.226037 -0.00774777 0 12.3685
0.234365 -0.00767837 0 12.8146
0.242699 -0.00770513 0 13.1903
0.243053 0.000406878 0 14.1723
0.251052 0.000560668 0 13.5706
0.1011 -0.00917048 0.01 2.19774
0.109395 -0.00873816 0.01 5.20004
0.117702 -0.00820226 0.01 7.10026
0.126007 -0.00773453 0.01 7.60024
0.134278 -0.00743684 0.01 7.88651
0.142732 -0.00800059 0.01 8.42534
0.151044 -0.00775151 0.01 8.81465
0.159347 -0.00741766 0.01 9.20142
0.167674 -0.00718652 0.01 9.44342
0.176018 -0.00763619 0.01 9.93877
0.184371 -0.00773948 0.01 10.5828
0.19269 -0.00760616 0.01 10.9556
0.201025 -0.00749327 0.01 11.2626
0.209366 -0.00775008 0.01 11.5575
0.217709 -0.00781477 0.01 12.0074
0.226037 -0.0077472 0.01 12.3263
0.234366 -0.0076789 0.01 12.7007
0.242699 -0.00770661 0.01 13.0491
0.243052 0.000433816 0.01 13.329
0.251056 0.000558977 0.01 14.5434
0.0490424 -0.0108272 0 5.03693
0.0508621 -0.0108253 0 8.69807
0.0991799 -0.00934788 0 -0.754125
0.107352 -0.00884906 0 3.55852
0.115657 -0.008354 0 4.7449
0.123959 -0.00786462 0 5.64566
0.132264 -0.00745458 0 6.26413
0.140649 -0.00797115 0 7.57972
0.148968 -0.00785052 0 8.58154
0.157287 -0.00749534 0 8.85998
0.165587 -0.00720717 0 9.56349
0.173912 -0.00744952 0 9.94191
0.182286 -0.00776731 0 10.3042
0.190609 -0.00762927 0 10.6757
0.198946 -0.0075188 0 11.1027
0.207644 -0.00210182 0 10.9242
0.207267 -0.00765824 0 11.367
0.209519 -0.00221416 0 10.3029
0.215651 -0.00194939 0 12.2542
0.215621 -0.00782621 0 11.9519
0.217738 -0.00183307 0 11.9688
0.22395 -0.00146597 0 12.1348
0.22395 -0.00776587 0 12.2782
0.226043 -0.00134317 0 12.2946
0.232247 -0.000976902 0 12.8396
0.232279 -0.00769406 0 12.7061
0.234318 -0.000808545 0 12.8535
0.240509 -0.00051347 0 13.1691
0.24061 -0.0076827 0 13.1312
0.242594 -0.000824798 0 14.4249
0.248967 -0.00125271 0 13.2202
0.248953 -0.00770848 0 13.2305
0.249009 0.000444598 0 13.6135
0.257303 0.000919451 0 14.0269
0.0490354 -0.0108178 0.01 3.15012
0.050926 -0.0110853 0.01 8.13731
0.0991641 -0.00931944 0.01 -2.94874
0.107341 -0.00882798 0.01 3.78207
0.115645 -0.00833542 0.01 5.13639
0.123947 -0.00784961 0.01 5.96467
0.132255 -0.00745328 0.01 6.57468
0.140646 -0.00798151 0.01 7.43715
0.148952 -0.0078277 0.01 8.35819
0.157265 -0.00751084 0.01 8.91578
0.165587 -0.00720733 0.01 9.26832
0.173903 -0.00742945 0.01 10.1695
0.182286 -0.00776661 0.01 10.3638
0.190609 -0.00763015 0.01 10.731
0.198936 -0.00751944 0.01 11.1041
0.207267 -0.00765835 0.01 11.6015
0.207643 -0.00206472 0.01 11.8704
0.215622 -0.00782484 0.01 11.9784
0.215652 -0.00193307 0.01 13.0752
0.209519 -0.00217962 0.01 10.5717
0.22395 -0.00776516 0.01 12.2388
0.223954 -0.00146724 0.01 12.9424
0.217737 -0.00182164 0.01 11.4519
0.232279 -0.00769441 0.01 12.6067
0.23225 -0.000975793 0.01 13.4763
0.226039 -0.00134427 0.01 11.6194
0.24061 -0.0076837 0.01 12.9793
0.24051 -0.00050965 0.01 13.432
0.234323 -0.000824955 0.01 11.9355
0.248953 -0.00770863 0.01 13.1905
0.248967 -0.00127208 0.01 13.2951
0.242587 -0.000801247 0.01 13.8108
0.249004 0.000443278 0.01 13.1602
0.257297 0.000937908 0.01 13.2744
0.251039 -0.00768908 0 13.3565
0.259353 -0.0076036 0 14.6684
0.259354 0.00104857 0 13.8027
0.267648 0.00152319 0 14.0005
0.275901 0.00156015 0 14.6436
0.284378 0.00113572 0 14.464
0.292684 0.00143044 0 14.8951
0.301005 0.00169748 0 15.2541
0.309343 0.00131469 0 15.4893
0.317702 0.00129626 0 16.0845
0.326025 0.0014339 0 16.3261
0.33435 0.00150064 0 16.6394
0.342703 0.00124079 0 16.8358
0.351037 0.00125809 0 17.6236
0.359365 0.00131653 0 18.0983
0.367699 0.00126603 0 18.4734
0.36806 0.00983151 0 19.0189
0.37604 0.0012077 0 18.7361
0.376061 0.0100133 0 18.8264
0.384372 0.00123079 0 19.1741
0.38435 0.0106087 0 19.2078
0.392704 0.00124091 0 19.6136
0.392636 0.0110897 0 19.4252
0.40104 0.00120163 0 19.9814
0.401054 0.0105018 0 19.3867
0.409374 0.00120106 0 20.4518
0.409368 0.0107882 0 20.4683
0.417707 0.00121028 0 20.9226
0.417675 0.0111174 0 21.0144
0.42604 0.00120297 0 21.3731
0.425975 0.011015 0 22.1355
0.434375 0.00119364 0 21.8081
0.434364 0.0107562 0 22.1472
0.442708 0.00119964 0 22.2683
0.442687 0.0109001 0 22.4897
0.451041 0.00121353 0 22.7249
0.451017 0.0110045 0 22.9575
0.459374 0.0012282 0 23.1888
0.459371 0.0107585 0 23.2618
0.467707 0.00124459 0 23.6866
0.467704 0.0107775 0 23.9699
0.476041 0.00121869 0 24.1137
0.476032 0.0108386 0 24.4369
0.484375 0.00119596 0 24.473
0.484364 0.010829 0 24.872
0.492708 0.00119304 0 24.8954
0.492707 0.0107364 0 25.171
0.492737 0.0195073 0 25.2058
0.501042 0.00119307 0 25.3623
0.501039 0.0107518 0 25.7145
0.501021 0.020069 0 25.949
0.509375 0.00119327 0 25.8182
0.509371 0.0107689 0 26.1772
0.509317 0.0205648 0 26.1606
0.517708 0.00119281 0 26.2536
0.517706 0.0107338 0 26.604
0.517704 0.0201406 0 26.4119
0.526041 0.00119257 0 26.6803
0.526041 0.0107215 0 27.0702
0.526044 0.0201611 0 27.3322
0.534375 0.00119267 0 27.0948
0.534374 0.0107304 0 27.5213
0.534357 0.0204546 0 27.8021
0.542708 0.00119272 0 27.4894
0.542707 0.0107359 0 27.9295
0.542681 0.020781 0 28.2033
0.551041 0.0107221 0 28.3077
0.551013 0.020336 0 28.6238
0.559375 0.0107163 0 28.717
0.559365 0.0202704 0 29.1831
0.567699 0.0204213 0 29.5216
0.251039 -0.00768915 0.01 13.3461
0.259353 -0.00760366 0.01 14.6735
0.259362 0.00105841 0.01 14.6315
0.267646 0.00156159 0.01 14.6919
0.275918 0.00155904 0.01 15.298
0.284378 0.001143 0.01 14.7673
0.292689 0.00143669 0.01 15.0469
0.301006 0.00169893 0.01 15.3119
0.309348 0.00133215 0.01 15.3702
0.317702 0.00129567 0.01 16.1271
0.326025 0.00143218 0.01 16.3939
0.33435 0.00149862 0.01 16.7331
0.342704 0.00124073 0.01 16.8221
0.351037 0.00125771 0.01 17.5568
0.359365 0.00131575 0.01 18.0127
0.3677 0.00126553 0.01 18.417
0.368058 0.00986982 0.01 18.7615
0.37604 0.00120756 0.01 18.7559
0.376066 0.0100695 0.01 19.5506
0.384372 0.00123045 0.01 19.19
0.384355 0.010609 0.01 19.7672
0.392704 0.00124049 0.01 19.6155
0.392627 0.0111439 0.01 19.9729
0.401041 0.00120159 0.01 19.9803
0.401061 0.0105192 0.01 19.6744
0.409374 0.00120091 0.01 20.4633