/*--------------------------------*- C++ -*----------------------------------*\
| =========                 |                                                 |
| \\      /  F ield         | OpenFOAM: The Open Source CFD Toolbox           |
|  \\    /   O peration     | Version:  2506                                  |
|   \\  /    A nd           | Website:  www.openfoam.com                      |
|    \\/     M anipulation  |                                                 |
\*---------------------------------------------------------------------------*/
FoamFile
{
    version     2.0;
    format      ascii;
    arch        "LSB;label=32;scalar=64";
    class       volScalarField;
    location    "500";
    object      epsilon;
}
// * * * * * * * * * * * * * * * * * * * * * * * * * * * * * * * * * * * * * //

dimensions      [0 2 -3 0 0 0 0];

internalField   nonuniform List<scalar> 
131949
(
0.427376
0.492067
0.494247
0.487068
0.480358
0.474537
0.469356
0.464769
0.460689
0.457006
0.453634
0.45051
0.447588
0.444832
0.442215
0.439713
0.437312
0.434996
0.432755
0.43058
0.428464
0.4264
0.424384
0.42241
0.420475
0.418575
0.416709
0.414873
0.413065
0.411283
0.409527
0.407793
0.406082
0.404391
0.40272
0.401068
0.399434
0.397816
0.396215
0.39463
0.39306
0.391504
0.389963
0.388435
0.38692
0.385418
0.383929
0.382451
0.380985
0.379531
0.378088
0.376655
0.375234
0.373822
0.372421
0.37103
0.369648
0.368276
0.366914
0.365561
0.364216
0.362881
0.361554
0.360236
0.358927
0.357625
0.356332
0.355047
0.353771
0.352502
0.35124
0.349987
0.348741
0.347502
0.346271
0.345047
0.34383
0.342621
0.341418
0.340223
0.339034
0.337852
0.336677
0.335508
0.334346
0.333191
0.332042
0.3309
0.329764
0.328634
0.32751
0.326392
0.325281
0.324176
0.323076
0.321983
0.320895
0.319813
0.318737
0.317667
0.316603
0.315544
0.31449
0.313443
0.3124
0.311364
0.310332
0.309306
0.308285
0.30727
0.30626
0.305255
0.304255
0.30326
0.30227
0.301286
0.300306
0.299331
0.298362
0.297397
0.296437
0.295482
0.294531
0.293586
0.292645
0.291709
0.290777
0.28985
0.288928
0.28801
0.287097
0.286188
0.285284
0.284384
0.283488
0.282597
0.281711
0.280828
0.27995
0.279076
0.278207
0.277341
0.27648
0.275623
0.27477
0.273921
0.273076
0.272235
0.271398
0.270565
0.269737
0.268912
0.268091
0.267273
0.26646
0.265651
0.264845
0.264043
0.263245
0.262451
0.26166
0.260873
0.26009
0.259311
0.258535
0.257762
0.256994
0.256228
0.255467
0.254709
0.253954
0.253203
0.252455
0.251711
0.25097
0.250232
0.249498
0.248767
0.24804
0.247316
0.246595
0.245877
0.245163
0.244452
0.243744
0.243039
0.242338
0.241639
0.240944
0.240252
0.239563
0.238877
0.238194
0.237514
0.236837
0.236163
0.235492
0.234825
0.23416
0.233498
0.232839
0.232182
0.231529
0.230879
0.230231
0.229586
0.228944
0.228305
0.227669
0.227035
0.226404
0.225776
0.225151
0.224528
0.223908
0.223291
0.222676
0.222064
0.221454
0.220848
0.220243
0.219642
0.219043
0.218446
0.217852
0.21726
0.216671
0.216085
0.215501
0.214919
0.21434
0.213763
0.213189
0.212617
0.212047
0.21148
0.210915
0.210353
0.209792
0.209234
0.208679
0.208126
0.207575
0.207026
0.206479
0.205935
0.205393
0.204853
0.204315
0.20378
0.203247
0.202715
0.202186
0.201659
0.201135
0.200612
0.200091
0.199573
0.199056
0.198542
0.19803
0.197519
0.197011
0.196505
0.196
0.195498
0.194998
0.194499
0.194003
0.193508
0.193016
0.192525
0.192036
0.191549
0.191064
0.190581
0.1901
0.189621
0.189143
0.188667
0.188193
0.187721
0.187251
0.186783
0.186316
0.185851
0.185388
0.184927
0.184467
0.184009
0.183553
0.183099
0.182646
0.182195
0.181746
0.181298
0.180853
0.180408
0.179966
0.179525
0.179086
0.178649
0.178213
0.177779
0.177346
0.176915
0.176486
0.176059
0.175633
0.175208
0.174786
0.174365
0.173945
0.173527
0.173111
0.172696
0.172283
0.171871
0.171461
0.171053
0.170646
0.170241
0.169837
0.169435
0.169034
0.168635
0.168237
0.167841
0.167446
0.167053
0.166662
0.166272
0.165883
0.165496
0.16511
0.164726
0.164343
0.163962
0.163582
0.163204
0.162827
0.162451
0.162077
0.161705
0.161333
0.160963
0.160595
0.160227
0.159862
0.159497
0.159134
0.158772
0.158412
0.158052
0.157694
0.157338
0.156982
0.156628
0.156275
0.155923
0.155572
0.155223
0.154875
0.154527
0.154181
0.153836
0.153492
0.153149
0.152808
0.152467
0.152127
0.151788
0.15145
0.151113
0.150777
0.150441
0.150107
0.149773
0.14944
0.149108
0.148776
0.148445
0.148115
0.147786
0.147457
0.147128
0.1468
0.146472
0.146145
0.145819
0.145492
0.145166
0.14484
0.144515
0.144189
0.143864
0.14354
0.143218
0.142909
0.142657
0.270384
0.330571
0.37502
0.402594
0.41976
0.430198
0.436093
0.439155
0.440496
0.440758
0.440325
0.439442
0.438265
0.436892
0.435388
0.433798
0.43215
0.430466
0.428759
0.42704
0.425316
0.423591
0.42187
0.420155
0.418449
0.416752
0.415066
0.413391
0.411728
0.410077
0.408437
0.406811
0.405196
0.403593
0.402003
0.400424
0.398858
0.397302
0.395759
0.394226
0.392705
0.391195
0.389695
0.388206
0.386728
0.38526
0.383801
0.382353
0.380915
0.379486
0.378067
0.376657
0.375256
0.373865
0.372482
0.371108
0.369743
0.368387
0.367039
0.365699
0.364368
0.363044
0.361729
0.360422
0.359123
0.357831
0.356547
0.355271
0.354002
0.352741
0.351487
0.35024
0.349
0.347768
0.346543
0.345324
0.344113
0.342908
0.34171
0.340519
0.339334
0.338157
0.336985
0.33582
0.334661
0.333509
0.332363
0.331223
0.33009
0.328962
0.327841
0.326726
0.325616
0.324513
0.323415
0.322323
0.321237
0.320157
0.319082
0.318013
0.31695
0.315892
0.31484
0.313793
0.312751
0.311715
0.310685
0.309659
0.308639
0.307624
0.306614
0.305609
0.30461
0.303615
0.302626
0.301641
0.300662
0.299687
0.298718
0.297753
0.296793
0.295837
0.294887
0.293941
0.293
0.292064
0.291132
0.290205
0.289282
0.288364
0.28745
0.286541
0.285636
0.284736
0.28384
0.282948
0.282061
0.281178
0.280299
0.279425
0.278555
0.277689
0.276827
0.275969
0.275115
0.274266
0.27342
0.272579
0.271741
0.270908
0.270078
0.269252
0.268431
0.267613
0.266799
0.265989
0.265182
0.26438
0.263581
0.262786
0.261994
0.261207
0.260422
0.259642
0.258865
0.258092
0.257323
0.256556
0.255794
0.255035
0.254279
0.253527
0.252779
0.252034
0.251292
0.250553
0.249818
0.249087
0.248358
0.247633
0.246912
0.246193
0.245478
0.244766
0.244057
0.243352
0.242649
0.24195
0.241254
0.240561
0.239871
0.239184
0.2385
0.237819
0.237142
0.236467
0.235795
0.235126
0.234461
0.233798
0.233138
0.232481
0.231827
0.231175
0.230527
0.229881
0.229238
0.228598
0.227961
0.227327
0.226695
0.226066
0.22544
0.224816
0.224195
0.223577
0.222961
0.222348
0.221738
0.22113
0.220525
0.219923
0.219323
0.218725
0.21813
0.217538
0.216948
0.216361
0.215776
0.215193
0.214613
0.214036
0.21346
0.212888
0.212317
0.211749
0.211183
0.21062
0.210059
0.2095
0.208944
0.20839
0.207838
0.207289
0.206741
0.206196
0.205653
0.205113
0.204574
0.204038
0.203504
0.202972
0.202442
0.201914
0.201389
0.200865
0.200344
0.199824
0.199307
0.198792
0.198279
0.197768
0.197259
0.196751
0.196246
0.195743
0.195242
0.194743
0.194246
0.19375
0.193257
0.192766
0.192276
0.191789
0.191303
0.190819
0.190337
0.189857
0.189378
0.188902
0.188427
0.187955
0.187484
0.187014
0.186547
0.186081
0.185618
0.185155
0.184695
0.184237
0.18378
0.183325
0.182871
0.18242
0.18197
0.181522
0.181075
0.18063
0.180187
0.179746
0.179306
0.178868
0.178431
0.177996
0.177563
0.177132
0.176702
0.176274
0.175847
0.175422
0.174999
0.174577
0.174157
0.173738
0.173321
0.172906
0.172492
0.17208
0.171669
0.17126
0.170853
0.170447
0.170042
0.16964
0.169238
0.168838
0.16844
0.168043
0.167648
0.167255
0.166862
0.166472
0.166082
0.165695
0.165309
0.164924
0.16454
0.164159
0.163778
0.163399
0.163022
0.162646
0.162271
0.161898
0.161526
0.161155
0.160786
0.160419
0.160052
0.159687
0.159323
0.158961
0.1586
0.15824
0.157882
0.157524
0.157168
0.156814
0.15646
0.156108
0.155756
0.155406
0.155058
0.15471
0.154363
0.154018
0.153673
0.15333
0.152987
0.152646
0.152305
0.151966
0.151627
0.15129
0.150953
0.150617
0.150282
0.149948
0.149614
0.149281
0.148949
0.148617
0.148287
0.147956
0.147626
0.147297
0.146969
0.14664
0.146312
0.145985
0.145658
0.145331
0.145004
0.144678
0.144352
0.144026
0.143701
0.143378
0.143068
0.142816
0.228178
0.258029
0.288821
0.31625
0.339563
0.35869
0.373778
0.385403
0.39426
0.40094
0.405916
0.409572
0.412201
0.414031
0.415236
0.415947
0.416267
0.416274
0.416029
0.415581
0.414968
0.414219
0.41336
0.412408
0.411381
0.410292
0.40915
0.407965
0.406744
0.405493
0.404218
0.402922
0.401609
0.400283
0.398946
0.397601
0.396249
0.394892
0.393531
0.392168
0.390804
0.389439
0.388076
0.386713
0.385353
0.383994
0.382639
0.381287
0.379939
0.378595
0.377256
0.37592
0.37459
0.373265
0.371945
0.37063
0.36932
0.368016
0.366718
0.365425
0.364138
0.362857
0.361581
0.360312
0.359048
0.357791
0.356539
0.355293
0.354054
0.35282
0.351592
0.350371
0.349155
0.347945
0.346741
0.345543
0.344351
0.343165
0.341985
0.340811
0.339643
0.33848
0.337323
0.336172
0.335027
0.333888
0.332754
0.331626
0.330503
0.329386
0.328275
0.327169
0.326069
0.324974
0.323885
0.322801
0.321723
0.32065
0.319582
0.31852
0.317463
0.316411
0.315364
0.314323
0.313286
0.312255
0.311229
0.310208
0.309192
0.308181
0.307175
0.306174
0.305178
0.304187
0.3032
0.302219
0.301242
0.30027
0.299302
0.29834
0.297382
0.296429
0.29548
0.294536
0.293597
0.292662
0.291731
0.290805
0.289884
0.288967
0.288054
0.287146
0.286242
0.285343
0.284447
0.283556
0.28267
0.281787
0.280909
0.280035
0.279165
0.278299
0.277437
0.276579
0.275725
0.274876
0.27403
0.273188
0.272351
0.271517
0.270687
0.269861
0.269039
0.268221
0.267406
0.266595
0.265788
0.264985
0.264186
0.26339
0.262598
0.261809
0.261025
0.260243
0.259466
0.258692
0.257921
0.257154
0.256391
0.255631
0.254875
0.254122
0.253372
0.252626
0.251883
0.251144
0.250408
0.249675
0.248946
0.248219
0.247497
0.246777
0.246061
0.245347
0.244637
0.243931
0.243227
0.242527
0.241829
0.241135
0.240444
0.239756
0.239071
0.238389
0.23771
0.237034
0.236361
0.235691
0.235023
0.234359
0.233698
0.23304
0.232384
0.231731
0.231082
0.230435
0.229791
0.229149
0.228511
0.227875
0.227242
0.226611
0.225984
0.225359
0.224737
0.224117
0.2235
0.222886
0.222274
0.221665
0.221059
0.220455
0.219853
0.219254
0.218658
0.218064
0.217473
0.216884
0.216298
0.215714
0.215133
0.214554
0.213977
0.213403
0.212831
0.212262
0.211695
0.21113
0.210568
0.210008
0.20945
0.208895
0.208341
0.20779
0.207242
0.206695
0.206151
0.205609
0.205069
0.204531
0.203996
0.203463
0.202931
0.202402
0.201875
0.201351
0.200828
0.200307
0.199789
0.199272
0.198758
0.198245
0.197735
0.197226
0.19672
0.196215
0.195713
0.195212
0.194714
0.194217
0.193723
0.19323
0.192739
0.19225
0.191763
0.191278
0.190794
0.190313
0.189833
0.189356
0.18888
0.188406
0.187933
0.187463
0.186994
0.186527
0.186062
0.185599
0.185137
0.184677
0.184219
0.183763
0.183308
0.182855
0.182404
0.181955
0.181507
0.181061
0.180616
0.180174
0.179733
0.179293
0.178855
0.178419
0.177985
0.177552
0.177121
0.176692
0.176264
0.175838
0.175413
0.17499
0.174569
0.174149
0.173731
0.173314
0.172899
0.172486
0.172074
0.171664
0.171255
0.170848
0.170442
0.170038
0.169636
0.169235
0.168836
0.168438
0.168042
0.167647
0.167253
0.166862
0.166471
0.166082
0.165695
0.165309
0.164925
0.164542
0.164161
0.163781
0.163402
0.163025
0.162649
0.162275
0.161902
0.16153
0.16116
0.160791
0.160424
0.160058
0.159693
0.15933
0.158968
0.158607
0.158247
0.157889
0.157532
0.157176
0.156821
0.156468
0.156116
0.155765
0.155415
0.155066
0.154719
0.154372
0.154027
0.153682
0.153339
0.152996
0.152655
0.152314
0.151975
0.151636
0.151298
0.150961
0.150625
0.15029
0.149955
0.149621
0.149288
0.148956
0.148624
0.148292
0.147961
0.147631
0.147301
0.146972
0.146643
0.146314
0.145986
0.145658
0.14533
0.145003
0.144676
0.144349
0.144022
0.143698
0.143387
0.143133
0.214641
0.227086
0.24239
0.259352
0.276822
0.293836
0.309628
0.323786
0.3362
0.346913
0.356047
0.363767
0.370246
0.375652
0.380136
0.383833
0.386858
0.389309
0.391271
0.392816
0.394002
0.394881
0.395495
0.39588
0.396068
0.396084
0.39595
0.395687
0.39531
0.394833
0.394269
0.393627
0.392919
0.39215
0.39133
0.390462
0.389554
0.388609
0.387632
0.386627
0.385597
0.384544
0.383472
0.382383
0.381279
0.380161
0.379032
0.377893
0.376745
0.375589
0.374428
0.37326
0.372089
0.370913
0.369735
0.368554
0.367372
0.366189
0.365005
0.363821
0.362637
0.361454
0.360272
0.359092
0.357913
0.356736
0.355561
0.354389
0.353219
0.352052
0.350888
0.349728
0.34857
0.347416
0.346265
0.345118
0.343975
0.342836
0.3417
0.340569
0.339442
0.338318
0.337199
0.336084
0.334974
0.333868
0.332766
0.331668
0.330575
0.329487
0.328402
0.327323
0.326248
0.325177
0.324111
0.323049
0.321992
0.32094
0.319892
0.318848
0.317809
0.316775
0.315745
0.31472
0.313699
0.312683
0.311672
0.310665
0.309662
0.308664
0.30767
0.306681
0.305696
0.304716
0.30374
0.302769
0.301802
0.300839
0.299881
0.298927
0.297978
0.297032
0.296092
0.295155
0.294223
0.293295
0.292371
0.291451
0.290536
0.289625
0.288717
0.287815
0.286916
0.286021
0.285131
0.284244
0.283362
0.282483
0.281609
0.280738
0.279872
0.27901
0.278151
0.277296
0.276446
0.275599
0.274756
0.273917
0.273081
0.27225
0.271422
0.270598
0.269778
0.268961
0.268149
0.267339
0.266534
0.265732
0.264934
0.26414
0.263349
0.262561
0.261777
0.260997
0.26022
0.259447
0.258677
0.257911
0.257148
0.256388
0.255632
0.25488
0.25413
0.253384
0.252642
0.251902
0.251166
0.250433
0.249704
0.248978
0.248255
0.247535
0.246818
0.246105
0.245394
0.244687
0.243983
0.243282
0.242584
0.241889
0.241198
0.240509
0.239823
0.239141
0.238461
0.237784
0.23711
0.236439
0.235772
0.235107
0.234444
0.233785
0.233129
0.232475
0.231824
0.231176
0.230531
0.229889
0.229249
0.228612
0.227978
0.227347
0.226718
0.226092
0.225468
0.224848
0.224229
0.223614
0.223001
0.222391
0.221783
0.221178
0.220575
0.219975
0.219378
0.218783
0.21819
0.2176
0.217012
0.216427
0.215844
0.215264
0.214686
0.21411
0.213537
0.212966
0.212398
0.211832
0.211268
0.210706
0.210147
0.20959
0.209036
0.208483
0.207933
0.207385
0.206839
0.206296
0.205755
0.205215
0.204678
0.204144
0.203611
0.20308
0.202552
0.202026
0.201501
0.200979
0.200459
0.199941
0.199425
0.198911
0.198399
0.197889
0.197381
0.196875
0.196371
0.195869
0.195369
0.194871
0.194374
0.19388
0.193388
0.192897
0.192408
0.191922
0.191437
0.190954
0.190472
0.189993
0.189516
0.18904
0.188566
0.188094
0.187624
0.187155
0.186688
0.186224
0.18576
0.185299
0.184839
0.184381
0.183925
0.183471
0.183018
0.182567
0.182117
0.18167
0.181224
0.180779
0.180337
0.179896
0.179457
0.179019
0.178583
0.178149
0.177716
0.177285
0.176856
0.176428
0.176002
0.175577
0.175154
0.174733
0.174313
0.173895
0.173479
0.173064
0.17265
0.172239
0.171828
0.17142
0.171013
0.170607
0.170203
0.169801
0.1694
0.169001
0.168603
0.168206
0.167812
0.167418
0.167027
0.166636
0.166248
0.16586
0.165474
0.16509
0.164707
0.164326
0.163946
0.163567
0.16319
0.162814
0.16244
0.162067
0.161695
0.161325
0.160956
0.160589
0.160223
0.159858
0.159495
0.159132
0.158771
0.158412
0.158053
0.157696
0.15734
0.156986
0.156632
0.15628
0.155929
0.155579
0.15523
0.154882
0.154535
0.154189
0.153844
0.153501
0.153158
0.152816
0.152475
0.152135
0.151796
0.151458
0.15112
0.150783
0.150447
0.150112
0.149778
0.149444
0.14911
0.148778
0.148446
0.148114
0.147783
0.147452
0.147122
0.146792
0.146462
0.146132
0.145803
0.145474
0.145146
0.144817
0.144489
0.144164
0.143851
0.143596
0.210104
0.215481
0.2225
0.231134
0.241112
0.252032
0.263409
0.2748
0.285864
0.296366
0.306153
0.315145
0.323317
0.330679
0.337267
0.343127
0.348315
0.352889
0.356904
0.360414
0.36347
0.366118
0.368399
0.370351
0.372009
0.373403
0.374559
0.375502
0.376254
0.376834
0.377258
0.377543
0.377702
0.377746
0.377688
0.377536
0.377299
0.376986
0.376603
0.376157
0.375654
0.375098
0.374494
0.373847
0.373161
0.372438
0.371683
0.370897
0.370084
0.369247
0.368387
0.367506
0.366606
0.365689
0.364756
0.36381
0.36285
0.361879
0.360898
0.359907
0.358907
0.3579
0.356886
0.355866
0.354841
0.35381
0.352776
0.351738
0.350697
0.349654
0.348608
0.347561
0.346512
0.345462
0.344412
0.343361
0.34231
0.341259
0.340209
0.33916
0.338111
0.337064
0.336018
0.334973
0.333931
0.33289
0.33185
0.330813
0.329779
0.328746
0.327716
0.326689
0.325664
0.324642
0.323623
0.322606
0.321593
0.320583
0.319575
0.318571
0.31757
0.316573
0.315579
0.314588
0.3136
0.312616
0.311635
0.310658
0.309684
0.308714
0.307748
0.306785
0.305825
0.30487
0.303917
0.302969
0.302024
0.301083
0.300146
0.299212
0.298282
0.297355
0.296433
0.295514
0.294598
0.293687
0.292779
0.291875
0.290975
0.290078
0.289185
0.288296
0.28741
0.286528
0.28565
0.284775
0.283904
0.283037
0.282173
0.281314
0.280457
0.279605
0.278755
0.27791
0.277068
0.27623
0.275395
0.274564
0.273737
0.272913
0.272092
0.271275
0.270462
0.269652
0.268845
0.268042
0.267243
0.266447
0.265654
0.264865
0.264079
0.263296
0.262517
0.261741
0.260969
0.2602
0.259434
0.258672
0.257913
0.257157
0.256404
0.255655
0.254909
0.254166
0.253426
0.25269
0.251957
0.251227
0.2505
0.249776
0.249055
0.248337
0.247623
0.246911
0.246203
0.245498
0.244795
0.244096
0.2434
0.242706
0.242016
0.241328
0.240644
0.239962
0.239284
0.238608
0.237935
0.237265
0.236598
0.235934
0.235272
0.234614
0.233958
0.233305
0.232654
0.232007
0.231362
0.23072
0.23008
0.229444
0.22881
0.228178
0.22755
0.226923
0.2263
0.225679
0.225061
0.224445
0.223832
0.223222
0.222614
0.222008
0.221405
0.220805
0.220207
0.219611
0.219018
0.218427
0.217839
0.217253
0.21667
0.216089
0.21551
0.214934
0.21436
0.213789
0.213219
0.212653
0.212088
0.211526
0.210966
0.210408
0.209852
0.209299
0.208748
0.208199
0.207652
0.207108
0.206565
0.206025
0.205487
0.204951
0.204417
0.203886
0.203356
0.202828
0.202303
0.20178
0.201258
0.200739
0.200222
0.199707
0.199193
0.198682
0.198173
0.197666
0.19716
0.196657
0.196155
0.195656
0.195158
0.194663
0.194169
0.193677
0.193187
0.192699
0.192212
0.191728
0.191245
0.190765
0.190286
0.189809
0.189333
0.18886
0.188388
0.187918
0.18745
0.186983
0.186519
0.186056
0.185594
0.185135
0.184677
0.184221
0.183767
0.183314
0.182863
0.182414
0.181967
0.181521
0.181077
0.180634
0.180193
0.179754
0.179316
0.178881
0.178446
0.178014
0.177583
0.177153
0.176726
0.1763
0.175875
0.175452
0.175031
0.174611
0.174193
0.173776
0.173362
0.172948
0.172536
0.172126
0.171717
0.17131
0.170905
0.170501
0.170098
0.169697
0.169298
0.1689
0.168504
0.168109
0.167716
0.167324
0.166933
0.166544
0.166157
0.165771
0.165387
0.165004
0.164622
0.164242
0.163863
0.163486
0.16311
0.162736
0.162362
0.161991
0.16162
0.161251
0.160884
0.160517
0.160152
0.159789
0.159426
0.159065
0.158705
0.158347
0.157989
0.157633
0.157278
0.156924
0.156572
0.15622
0.15587
0.15552
0.155172
0.154825
0.154478
0.154133
0.153789
0.153446
0.153103
0.152762
0.152421
0.152081
0.151742
0.151404
0.151067
0.15073
0.150394
0.150059
0.149724
0.14939
0.149056
0.148723
0.14839
0.148058
0.147726
0.147394
0.147063
0.146732
0.146401
0.146071
0.145741
0.14541
0.145081
0.144754
0.14444
0.144184
0.208358
0.2109
0.214191
0.218358
0.223454
0.229447
0.236207
0.243546
0.251262
0.259159
0.267065
0.274836
0.282362
0.28956
0.296376
0.302775
0.308743
0.314276
0.31938
0.324068
0.328357
0.332268
0.335822
0.339043
0.341951
0.34457
0.346919
0.349018
0.350887
0.352542
0.354
0.355276
0.356384
0.357337
0.358147
0.358824
0.359379
0.359822
0.36016
0.360402
0.360555
0.360626
0.36062
0.360543
0.360401
0.360198
0.359938
0.359627
0.359267
0.358862
0.358416
0.357931
0.357409
0.356855
0.356269
0.355654
0.355013
0.354347
0.353658
0.352947
0.352216
0.351467
0.350701
0.349918
0.349121
0.348311
0.347487
0.346652
0.345806
0.344951
0.344086
0.343212
0.342331
0.341442
0.340547
0.339646
0.33874
0.337828
0.336913
0.335993
0.335069
0.334143
0.333213
0.332281
0.331347
0.330411
0.329473
0.328534
0.327594
0.326654
0.325712
0.324771
0.323829
0.322887
0.321946
0.321005
0.320064
0.319125
0.318186
0.317248
0.316311
0.315376
0.314442
0.313509
0.312578
0.311649
0.310722
0.309796
0.308873
0.307951
0.307032
0.306115
0.3052
0.304287
0.303377
0.302469
0.301564
0.300661
0.299761
0.298863
0.297968
0.297076
0.296186
0.295299
0.294415
0.293534
0.292656
0.29178
0.290908
0.290038
0.289172
0.288308
0.287447
0.28659
0.285735
0.284883
0.284035
0.283189
0.282346
0.281507
0.280671
0.279837
0.279007
0.27818
0.277356
0.276535
0.275717
0.274902
0.274091
0.273282
0.272477
0.271675
0.270875
0.270079
0.269286
0.268496
0.26771
0.266926
0.266145
0.265368
0.264593
0.263822
0.263054
0.262289
0.261526
0.260767
0.260011
0.259258
0.258508
0.257761
0.257017
0.256277
0.255539
0.254804
0.254072
0.253343
0.252617
0.251894
0.251174
0.250456
0.249742
0.249031
0.248322
0.247617
0.246914
0.246215
0.245518
0.244824
0.244132
0.243444
0.242758
0.242076
0.241396
0.240719
0.240044
0.239373
0.238704
0.238038
0.237374
0.236714
0.236056
0.2354
0.234748
0.234098
0.233451
0.232806
0.232164
0.231525
0.230888
0.230254
0.229622
0.228993
0.228367
0.227743
0.227122
0.226503
0.225887
0.225273
0.224661
0.224053
0.223446
0.222842
0.222241
0.221642
0.221045
0.220451
0.219859
0.21927
0.218683
0.218098
0.217516
0.216936
0.216358
0.215783
0.215209
0.214639
0.21407
0.213504
0.21294
0.212378
0.211818
0.211261
0.210706
0.210153
0.209602
0.209053
0.208507
0.207962
0.20742
0.20688
0.206342
0.205806
0.205272
0.204741
0.204211
0.203683
0.203158
0.202634
0.202113
0.201593
0.201076
0.20056
0.200046
0.199535
0.199025
0.198517
0.198012
0.197508
0.197006
0.196506
0.196008
0.195511
0.195017
0.194524
0.194034
0.193545
0.193058
0.192573
0.192089
0.191608
0.191128
0.19065
0.190174
0.189699
0.189227
0.188756
0.188287
0.187819
0.187354
0.18689
0.186428
0.185967
0.185508
0.185051
0.184596
0.184142
0.18369
0.18324
0.182791
0.182344
0.181899
0.181455
0.181013
0.180573
0.180134
0.179697
0.179261
0.178828
0.178395
0.177965
0.177536
0.177108
0.176683
0.176258
0.175836
0.175415
0.174995
0.174577
0.174161
0.173746
0.173333
0.172922
0.172512
0.172103
0.171696
0.171291
0.170887
0.170485
0.170084
0.169685
0.169287
0.168891
0.168496
0.168103
0.167711
0.167321
0.166932
0.166545
0.166159
0.165774
0.165391
0.16501
0.16463
0.164251
0.163874
0.163498
0.163123
0.16275
0.162378
0.162008
0.161639
0.161271
0.160905
0.16054
0.160176
0.159813
0.159452
0.159092
0.158733
0.158375
0.158019
0.157664
0.15731
0.156957
0.156605
0.156254
0.155904
0.155556
0.155208
0.154862
0.154516
0.154171
0.153827
0.153485
0.153143
0.152801
0.152461
0.152121
0.151783
0.151444
0.151107
0.15077
0.150434
0.150098
0.149763
0.149429
0.149094
0.148761
0.148427
0.148094
0.147762
0.147429
0.147097
0.146765
0.146433
0.146102
0.145771
0.145442
0.145127
0.144869
0.207572
0.208875
0.210512
0.212559
0.215095
0.218178
0.221822
0.225997
0.230646
0.235691
0.24104
0.246601
0.252283
0.258002
0.263688
0.26928
0.274728
0.279995
0.285053
0.289881
0.294466
0.298802
0.302885
0.306717
0.310303
0.313647
0.316758
0.319645
0.322316
0.324782
0.327052
0.329137
0.331047
0.33279
0.334376
0.335815
0.337114
0.338282
0.339326
0.340255
0.341074
0.34179
0.34241
0.342939
0.343383
0.343747
0.344036
0.344254
0.344405
0.344494
0.344524
0.344499
0.344422
0.344296
0.344124
0.343909
0.343653
0.343359
0.343029
0.342665
0.342269
0.341843
0.341389
0.340909
0.340403
0.339874
0.339322
0.33875
0.338158
0.337548
0.336921
0.336277
0.335618
0.334944
0.334257
0.333557
0.332846
0.332123
0.33139
0.330647
0.329894
0.329134
0.328365
0.327589
0.326806
0.326016
0.32522
0.324419
0.323613
0.322801
0.321986
0.321166
0.320343
0.319516
0.318686
0.317853
0.317018
0.31618
0.31534
0.314499
0.313656
0.312811
0.311966
0.311119
0.310272
0.309424
0.308575
0.307727
0.306878
0.306029
0.30518
0.304332
0.303484
0.302636
0.30179
0.300944
0.300098
0.299254
0.298411
0.297568
0.296727
0.295888
0.29505
0.294213
0.293377
0.292544
0.291711
0.290881
0.290052
0.289225
0.2884
0.287577
0.286756
0.285937
0.28512
0.284305
0.283492
0.282681
0.281873
0.281066
0.280262
0.279461
0.278661
0.277864
0.277069
0.276277
0.275487
0.274699
0.273914
0.273132
0.272352
0.271574
0.270799
0.270026
0.269256
0.268489
0.267724
0.266961
0.266202
0.265445
0.26469
0.263938
0.263189
0.262442
0.261698
0.260956
0.260217
0.259481
0.258748
0.258017
0.257288
0.256563
0.25584
0.255119
0.254401
0.253686
0.252974
0.252264
0.251557
0.250852
0.25015
0.249451
0.248754
0.24806
0.247369
0.24668
0.245994
0.24531
0.244629
0.243951
0.243275
0.242602
0.241931
0.241263
0.240597
0.239934
0.239274
0.238616
0.237961
0.237308
0.236657
0.23601
0.235364
0.234721
0.234081
0.233443
0.232808
0.232175
0.231544
0.230916
0.230291
0.229668
0.229047
0.228428
0.227813
0.227199
0.226588
0.225979
0.225373
0.224769
0.224167
0.223567
0.22297
0.222376
0.221783
0.221193
0.220605
0.220019
0.219436
0.218855
0.218276
0.217699
0.217125
0.216553
0.215983
0.215415
0.21485
0.214286
0.213725
0.213166
0.212609
0.212054
0.211501
0.210951
0.210402
0.209856
0.209312
0.208769
0.208229
0.207691
0.207155
0.206621
0.206089
0.205559
0.205031
0.204505
0.203981
0.203458
0.202938
0.20242
0.201904
0.20139
0.200877
0.200367
0.199858
0.199351
0.198847
0.198344
0.197843
0.197343
0.196846
0.19635
0.195857
0.195365
0.194875
0.194386
0.1939
0.193415
0.192932
0.192451
0.191972
0.191494
0.191018
0.190544
0.190071
0.189601
0.189132
0.188664
0.188199
0.187735
0.187273
0.186812
0.186353
0.185896
0.185441
0.184987
0.184535
0.184084
0.183635
0.183188
0.182742
0.182298
0.181856
0.181415
0.180976
0.180539
0.180103
0.179668
0.179236
0.178805
0.178375
0.177947
0.177521
0.177096
0.176673
0.176251
0.175831
0.175413
0.174996
0.17458
0.174166
0.173754
0.173343
0.172934
0.172526
0.17212
0.171715
0.171312
0.170911
0.170511
0.170112
0.169715
0.169319
0.168925
0.168532
0.168141
0.167751
0.167363
0.166976
0.166591
0.166207
0.165825
0.165444
0.165064
0.164686
0.164309
0.163933
0.163559
0.163186
0.162815
0.162445
0.162076
0.161709
0.161342
0.160978
0.160614
0.160252
0.159891
0.159531
0.159172
0.158815
0.158458
0.158103
0.157749
0.157396
0.157044
0.156693
0.156344
0.155995
0.155647
0.155301
0.154955
0.15461
0.154266
0.153923
0.153581
0.153239
0.152898
0.152558
0.152219
0.15188
0.151543
0.151205
0.150868
0.150532
0.150196
0.149861
0.149526
0.149192
0.148858
0.148524
0.14819
0.147857
0.147523
0.14719
0.146857
0.146525
0.146196
0.145879
0.14562
0.207161
0.207854
0.208705
0.209746
0.211023
0.212585
0.21447
0.216696
0.21927
0.222181
0.225407
0.228912
0.232656
0.236593
0.240675
0.244856
0.249091
0.253342
0.257572
0.261751
0.265852
0.269855
0.273741
0.277496
0.281112
0.28458
0.287895
0.291055
0.294059
0.296908
0.299602
0.302144
0.304538
0.306788
0.308898
0.310871
0.312714
0.314431
0.316027
0.317507
0.318875
0.320137
0.321297
0.32236
0.32333
0.324212
0.325009
0.325726
0.326367
0.326935
0.327433
0.327866
0.328236
0.328547
0.328801
0.329001
0.329149
0.329249
0.329303
0.329313
0.32928
0.329208
0.329099
0.328953
0.328773
0.328561
0.328317
0.328045
0.327745
0.327418
0.327066
0.32669
0.326291
0.325871
0.32543
0.32497
0.324492
0.323995
0.323483
0.322954
0.32241
0.321852
0.321281
0.320697
0.3201
0.319492
0.318874
0.318244
0.317606
0.316957
0.316301
0.315635
0.314963
0.314282
0.313595
0.312901
0.312201
0.311496
0.310784
0.310068
0.309347
0.308622
0.307892
0.307158
0.306421
0.30568
0.304937
0.30419
0.303441
0.302689
0.301935
0.301179
0.300421
0.299661
0.2989
0.298137
0.297374
0.296609
0.295843
0.295077
0.29431
0.293543
0.292775
0.292007
0.291239
0.290471
0.289703
0.288935
0.288167
0.2874
0.286634
0.285868
0.285102
0.284338
0.283574
0.282811
0.282049
0.281288
0.280528
0.279769
0.279011
0.278255
0.2775
0.276746
0.275993
0.275242
0.274493
0.273745
0.272999
0.272254
0.271511
0.27077
0.27003
0.269292
0.268556
0.267822
0.267089
0.266359
0.26563
0.264903
0.264178
0.263456
0.262735
0.262016
0.261299
0.260584
0.259872
0.259161
0.258452
0.257746
0.257042
0.25634
0.25564
0.254942
0.254246
0.253553
0.252861
0.252172
0.251485
0.2508
0.250118
0.249438
0.24876
0.248084
0.24741
0.246739
0.24607
0.245403
0.244739
0.244076
0.243416
0.242758
0.242103
0.24145
0.240799
0.24015
0.239503
0.238859
0.238217
0.237577
0.23694
0.236305
0.235672
0.235041
0.234412
0.233786
0.233162
0.23254
0.231921
0.231303
0.230688
0.230075
0.229464
0.228856
0.22825
0.227645
0.227043
0.226444
0.225846
0.225251
0.224657
0.224066
0.223477
0.22289
0.222306
0.221723
0.221143
0.220565
0.219988
0.219414
0.218842
0.218272
0.217705
0.217139
0.216575
0.216014
0.215454
0.214897
0.214341
0.213788
0.213236
0.212687
0.212139
0.211594
0.211051
0.210509
0.20997
0.209432
0.208897
0.208363
0.207831
0.207302
0.206774
0.206248
0.205724
0.205202
0.204681
0.204163
0.203647
0.203132
0.202619
0.202108
0.201599
0.201092
0.200587
0.200083
0.199581
0.199081
0.198583
0.198087
0.197592
0.197099
0.196608
0.196118
0.195631
0.195145
0.194661
0.194178
0.193697
0.193218
0.192741
0.192265
0.191791
0.191319
0.190848
0.19038
0.189912
0.189447
0.188983
0.18852
0.18806
0.1876
0.187143
0.186687
0.186233
0.18578
0.185329
0.18488
0.184432
0.183986
0.183541
0.183098
0.182657
0.182217
0.181779
0.181342
0.180907
0.180473
0.180041
0.179611
0.179182
0.178755
0.178329
0.177904
0.177482
0.17706
0.176641
0.176223
0.175806
0.175391
0.174977
0.174565
0.174155
0.173746
0.173338
0.172932
0.172528
0.172125
0.171723
0.171323
0.170924
0.170527
0.170132
0.169737
0.169345
0.168953
0.168564
0.168175
0.167788
0.167403
0.167019
0.166636
0.166255
0.165875
0.165496
0.165119
0.164743
0.164369
0.163996
0.163624
0.163254
0.162885
0.162517
0.16215
0.161785
0.161421
0.161058
0.160697
0.160336
0.159977
0.159619
0.159263
0.158907
0.158553
0.158199
0.157847
0.157496
0.157145
0.156796
0.156448
0.156101
0.155754
0.155409
0.155064
0.154721
0.154378
0.154036
0.153694
0.153354
0.153014
0.152675
0.152336
0.151998
0.151661
0.151324
0.150987
0.150651
0.150316
0.149981
0.149646
0.149311
0.148977
0.148643
0.148309
0.147975
0.147642
0.147309
0.146978
0.146661
0.146402
0.206917
0.20727
0.207705
0.208235
0.208879
0.209666
0.210621
0.211767
0.213122
0.214698
0.2165
0.218526
0.220767
0.223208
0.225832
0.228616
0.231536
0.234565
0.237679
0.240854
0.244065
0.24729
0.25051
0.253708
0.256866
0.259973
0.263016
0.265986
0.268874
0.271674
0.274382
0.276994
0.279506
0.281917
0.284227
0.286435
0.288541
0.290546
0.292452
0.294261
0.295973
0.297592
0.29912
0.300559
0.301911
0.30318
0.304367
0.305476
0.306509
0.307469
0.308358
0.30918
0.309936
0.310628
0.31126
0.311834
0.312352
0.312816
0.313228
0.313591
0.313906
0.314175
0.3144
0.314584
0.314727
0.314831
0.314899
0.31493
0.314928
0.314893
0.314827
0.314731
0.314606
0.314454