/*--------------------------------*- C++ -*----------------------------------*\
| =========                 |                                                 |
| \\      /  F ield         | OpenFOAM: The Open Source CFD Toolbox           |
|  \\    /   O peration     | Version:  2506                                  |
|   \\  /    A nd           | Website:  www.openfoam.com                      |
|    \\/     M anipulation  |                                                 |
\*---------------------------------------------------------------------------*/
FoamFile
{
    version     2.0;
    format      ascii;
    arch        "LSB;label=32;scalar=64";
    class       volScalarField;
    location    "500";
    object      k;
}
// * * * * * * * * * * * * * * * * * * * * * * * * * * * * * * * * * * * * * //

dimensions      [0 2 -2 0 0 0 0];

internalField   nonuniform List<scalar> 
131949
(
0.559553
0.61061
0.612364
0.607641
0.603741
0.600654
0.598025
0.595766
0.593797
0.592037
0.590427
0.588931
0.587521
0.586179
0.584891
0.583645
0.582435
0.581254
0.580098
0.578962
0.577844
0.576742
0.575653
0.574576
0.573509
0.572452
0.571403
0.570362
0.569328
0.568301
0.56728
0.566264
0.565254
0.564249
0.563249
0.562253
0.561262
0.560275
0.559291
0.558312
0.557337
0.556365
0.555397
0.554432
0.553471
0.552513
0.551559
0.550607
0.549659
0.548714
0.547773
0.546834
0.545898
0.544966
0.544036
0.543109
0.542185
0.541265
0.540347
0.539432
0.538519
0.53761
0.536703
0.5358
0.534899
0.534
0.533105
0.532212
0.531322
0.530435
0.529551
0.528669
0.52779
0.526913
0.526039
0.525168
0.5243
0.523434
0.522571
0.52171
0.520852
0.519997
0.519144
0.518294
0.517446
0.516601
0.515759
0.514919
0.514082
0.513247
0.512414
0.511585
0.510757
0.509933
0.50911
0.50829
0.507473
0.506658
0.505846
0.505036
0.504228
0.503423
0.502621
0.50182
0.501023
0.500227
0.499434
0.498643
0.497855
0.497069
0.496286
0.495505
0.494726
0.493949
0.493175
0.492403
0.491634
0.490867
0.490102
0.489339
0.488579
0.487821
0.487065
0.486311
0.48556
0.484811
0.484064
0.48332
0.482577
0.481837
0.481099
0.480364
0.47963
0.478899
0.47817
0.477443
0.476718
0.475995
0.475275
0.474556
0.47384
0.473126
0.472414
0.471704
0.470996
0.47029
0.469587
0.468885
0.468186
0.467489
0.466793
0.4661
0.465409
0.464719
0.464032
0.463347
0.462664
0.461983
0.461304
0.460627
0.459951
0.459278
0.458607
0.457938
0.45727
0.456605
0.455942
0.45528
0.454621
0.453963
0.453307
0.452654
0.452002
0.451352
0.450703
0.450057
0.449413
0.44877
0.44813
0.447491
0.446854
0.446219
0.445585
0.444954
0.444324
0.443696
0.44307
0.442446
0.441823
0.441202
0.440583
0.439966
0.43935
0.438737
0.438125
0.437514
0.436906
0.436299
0.435694
0.43509
0.434489
0.433889
0.43329
0.432694
0.432099
0.431505
0.430914
0.430323
0.429735
0.429148
0.428563
0.42798
0.427398
0.426817
0.426239
0.425661
0.425086
0.424512
0.42394
0.423369
0.422799
0.422232
0.421665
0.421101
0.420538
0.419976
0.419416
0.418857
0.4183
0.417744
0.41719
0.416637
0.416086
0.415536
0.414988
0.414441
0.413896
0.413352
0.412809
0.412268
0.411728
0.41119
0.410653
0.410117
0.409583
0.40905
0.408519
0.407989
0.40746
0.406933
0.406406
0.405882
0.405358
0.404836
0.404315
0.403796
0.403278
0.402761
0.402245
0.401731
0.401218
0.400706
0.400196
0.399686
0.399178
0.398672
0.398166
0.397662
0.397159
0.396657
0.396157
0.395657
0.395159
0.394662
0.394167
0.393673
0.393179
0.392687
0.392197
0.391707
0.391219
0.390732
0.390246
0.389762
0.389278
0.388796
0.388315
0.387836
0.387357
0.38688
0.386404
0.385929
0.385455
0.384983
0.384512
0.384042
0.383573
0.383106
0.38264
0.382175
0.381711
0.381249
0.380788
0.380328
0.379869
0.379411
0.378955
0.3785
0.378047
0.377594
0.377143
0.376693
0.376244
0.375797
0.375351
0.374906
0.374462
0.37402
0.373578
0.373138
0.3727
0.372262
0.371826
0.371391
0.370957
0.370524
0.370093
0.369662
0.369233
0.368805
0.368378
0.367953
0.367528
0.367104
0.366682
0.366261
0.36584
0.365421
0.365003
0.364585
0.364169
0.363753
0.363339
0.362925
0.362512
0.3621
0.361689
0.361278
0.360868
0.360459
0.360051
0.359643
0.359235
0.358828
0.358422
0.358015
0.357609
0.357204
0.356798
0.356393
0.355987
0.355582
0.355177
0.354771
0.354365
0.353959
0.353553
0.353146
0.352738
0.35233
0.351921
0.351511
0.3511
0.350688
0.350274
0.34986
0.349444
0.349026
0.348607
0.348187
0.347764
0.347339
0.346912
0.346483
0.346051
0.345617
0.34518
0.34474
0.344298
0.343852
0.343403
0.342951
0.342495
0.342036
0.341573
0.341106
0.340638
0.340173
0.339734
0.3394
0.437505
0.49331
0.531808
0.554333
0.5678
0.575801
0.580299
0.582717
0.583926
0.584398
0.584402
0.584104
0.583607
0.582973
0.582245
0.58145
0.580606
0.579727
0.578822
0.577898
0.576958
0.576009
0.575051
0.574087
0.573118
0.572147
0.571174
0.570199
0.569224
0.568249
0.567274
0.5663
0.565327
0.564355
0.563385
0.562416
0.56145
0.560485
0.559522
0.558561
0.557602
0.556645
0.555691
0.554739
0.553789
0.552842
0.551897
0.550955
0.550015
0.549077
0.548142
0.54721
0.54628
0.545352
0.544428
0.543505
0.542586
0.541668
0.540754
0.539842
0.538933
0.538026
0.537121
0.53622
0.535321
0.534424
0.533531
0.532639
0.531751
0.530864
0.529981
0.5291
0.528222
0.527346
0.526473
0.525602
0.524734
0.523868
0.523005
0.522145
0.521287
0.520432
0.519579
0.518728
0.517881
0.517035
0.516193
0.515352
0.514515
0.513679
0.512847
0.512016
0.511189
0.510363
0.50954
0.50872
0.507902
0.507086
0.506273
0.505463
0.504654
0.503849
0.503045
0.502244
0.501446
0.500649
0.499856
0.499064
0.498275
0.497488
0.496704
0.495922
0.495142
0.494365
0.49359
0.492817
0.492046
0.491278
0.490512
0.489749
0.488988
0.488229
0.487472
0.486717
0.485965
0.485215
0.484467
0.483722
0.482979
0.482237
0.481499
0.480762
0.480027
0.479295
0.478565
0.477837
0.477111
0.476388
0.475666
0.474947
0.474229
0.473514
0.472801
0.47209
0.471382
0.470675
0.46997
0.469268
0.468567
0.467869
0.467173
0.466479
0.465786
0.465096
0.464408
0.463722
0.463038
0.462356
0.461676
0.460997
0.460321
0.459647
0.458975
0.458305
0.457637
0.45697
0.456306
0.455644
0.454983
0.454325
0.453668
0.453013
0.45236
0.451709
0.45106
0.450413
0.449768
0.449124
0.448483
0.447843
0.447205
0.446569
0.445935
0.445302
0.444672
0.444043
0.443416
0.442791
0.442167
0.441546
0.440926
0.440308
0.439691
0.439077
0.438464
0.437853
0.437243
0.436635
0.436029
0.435425
0.434823
0.434222
0.433623
0.433025
0.432429
0.431835
0.431243
0.430652
0.430062
0.429475
0.428889
0.428305
0.427722
0.427141
0.426561
0.425983
0.425407
0.424832
0.424259
0.423687
0.423117
0.422549
0.421982
0.421416
0.420852
0.42029
0.419729
0.41917
0.418612
0.418055
0.4175
0.416947
0.416395
0.415845
0.415295
0.414748
0.414202
0.413657
0.413114
0.412572
0.412031
0.411492
0.410954
0.410418
0.409883
0.40935
0.408817
0.408287
0.407757
0.407229
0.406702
0.406177
0.405653
0.40513
0.404608
0.404088
0.403569
0.403052
0.402535
0.40202
0.401506
0.400994
0.400483
0.399973
0.399464
0.398957
0.398451
0.397946
0.397442
0.39694
0.396438
0.395939
0.39544
0.394942
0.394446
0.393951
0.393457
0.392965
0.392473
0.391983
0.391494
0.391007
0.39052
0.390035
0.389551
0.389068
0.388587
0.388106
0.387627
0.387149
0.386673
0.386197
0.385723
0.38525
0.384778
0.384308
0.383839
0.383371
0.382904
0.382438
0.381974
0.381511
0.381049
0.380589
0.38013
0.379672
0.379215
0.378759
0.378305
0.377852
0.3774
0.37695
0.376501
0.376053
0.375606
0.375161
0.374716
0.374273
0.373832
0.373391
0.372952
0.372514
0.372077
0.371641
0.371207
0.370774
0.370342
0.369911
0.369481
0.369053
0.368625
0.368199
0.367774
0.36735
0.366927
0.366505
0.366084
0.365664
0.365246
0.364828
0.364411
0.363995
0.36358
0.363166
0.362752
0.36234
0.361928
0.361517
0.361106
0.360697
0.360287
0.359879
0.359471
0.359063
0.358656
0.358249
0.357843
0.357436
0.35703
0.356624
0.356218
0.355812
0.355406
0.354999
0.354593
0.354186
0.353779
0.353371
0.352962
0.352553
0.352143
0.351732
0.35132
0.350907
0.350493
0.350077
0.34966
0.349242
0.348822
0.348399
0.347975
0.347549
0.347121
0.346691
0.346258
0.345822
0.345384
0.344943
0.344498
0.344051
0.343601
0.343147
0.342689
0.342228
0.341763
0.341295
0.340825
0.340358
0.339917
0.339581
0.398944
0.430837
0.461659
0.487593
0.508599
0.525145
0.537752
0.5472
0.554253
0.559503
0.563392
0.566257
0.568345
0.56984
0.570877
0.571557
0.571955
0.572129
0.572124
0.571973
0.571702
0.571334
0.570885
0.570368
0.569794
0.569173
0.568511
0.567814
0.567089
0.566338
0.565565
0.564774
0.563967
0.563146
0.562313
0.56147
0.560618
0.559759
0.558893
0.558021
0.557144
0.556264
0.55538
0.554493
0.553603
0.552712
0.55182
0.550926
0.550031
0.549136
0.54824
0.547345
0.546449
0.545554
0.544659
0.543766
0.542872
0.54198
0.541089
0.540199
0.539311
0.538424
0.537538
0.536654
0.535771
0.53489
0.534011
0.533133
0.532257
0.531384
0.530512
0.529642
0.528774
0.527907
0.527043
0.526182
0.525322
0.524464
0.523608
0.522755
0.521903
0.521054
0.520207
0.519362
0.51852
0.51768
0.516841
0.516006
0.515172
0.514341
0.513511
0.512685
0.51186
0.511038
0.510218
0.5094
0.508584
0.507771
0.50696
0.506152
0.505345
0.504541
0.503739
0.50294
0.502143
0.501348
0.500555
0.499764
0.498976
0.49819
0.497407
0.496625
0.495846
0.495069
0.494295
0.493522
0.492752
0.491984
0.491219
0.490455
0.489694
0.488935
0.488178
0.487423
0.486671
0.485921
0.485173
0.484427
0.483683
0.482942
0.482202
0.481465
0.48073
0.479997
0.479267
0.478538
0.477811
0.477087
0.476365
0.475645
0.474927
0.474211
0.473497
0.472785
0.472076
0.471368
0.470663
0.469959
0.469258
0.468559
0.467861
0.467166
0.466473
0.465782
0.465092
0.464405
0.46372
0.463037
0.462356
0.461677
0.460999
0.460324
0.459651
0.458979
0.45831
0.457643
0.456977
0.456314
0.455652
0.454992
0.454334
0.453678
0.453024
0.452372
0.451722
0.451074
0.450427
0.449782
0.449139
0.448499
0.447859
0.447222
0.446587
0.445953
0.445321
0.444691
0.444063
0.443436
0.442812
0.442189
0.441568
0.440948
0.440331
0.439715
0.439101
0.438488
0.437878
0.437269
0.436661
0.436056
0.435452
0.43485
0.434249
0.433651
0.433054
0.432458
0.431864
0.431272
0.430682
0.430093
0.429506
0.42892
0.428336
0.427754
0.427173
0.426594
0.426016
0.42544
0.424866
0.424293
0.423722
0.423152
0.422584
0.422017
0.421452
0.420888
0.420326
0.419766
0.419207
0.418649
0.418093
0.417538
0.416985
0.416433
0.415883
0.415334
0.414787
0.414241
0.413696
0.413153
0.412612
0.412071
0.411532
0.410995
0.410459
0.409924
0.409391
0.408859
0.408328
0.407799
0.407271
0.406744
0.406219
0.405695
0.405172
0.404651
0.404131
0.403612
0.403094
0.402578
0.402063
0.40155
0.401037
0.400526
0.400016
0.399508
0.399001
0.398495
0.39799
0.397486
0.396984
0.396483
0.395983
0.395484
0.394987
0.394491
0.393996
0.393502
0.39301
0.392518
0.392028
0.39154
0.391052
0.390566
0.390081
0.389597
0.389114
0.388633
0.388152
0.387673
0.387196
0.386719
0.386244
0.38577
0.385297
0.384825
0.384355
0.383886
0.383418
0.382952
0.382486
0.382022
0.381559
0.381098
0.380638
0.380179
0.379721
0.379264
0.378809
0.378355
0.377902
0.377451
0.377
0.376551
0.376104
0.375657
0.375212
0.374768
0.374325
0.373884
0.373444
0.373005
0.372567
0.37213
0.371695
0.371261
0.370828
0.370396
0.369965
0.369536
0.369108
0.36868
0.368254
0.367829
0.367405
0.366983
0.366561
0.36614
0.36572
0.365302
0.364884
0.364467
0.364051
0.363636
0.363221
0.362808
0.362395
0.361983
0.361572
0.361161
0.360751
0.360341
0.359932
0.359524
0.359115
0.358708
0.3583
0.357893
0.357486
0.357078
0.356671
0.356264
0.355857
0.35545
0.355042
0.354634
0.354226
0.353817
0.353407
0.352997
0.352585
0.352173
0.35176
0.351346
0.35093
0.350513
0.350095
0.349675
0.349254
0.34883
0.348405
0.347977
0.347547
0.347115
0.346681
0.346243
0.345803
0.345361
0.344915
0.344466
0.344013
0.343557
0.343098
0.342635
0.342168
0.341698
0.341226
0.340757
0.340314
0.339977
0.384717
0.399671
0.417137
0.435562
0.453685
0.470604
0.485713
0.4988
0.509934
0.519298
0.527112
0.533599
0.538967
0.5434
0.547051
0.55005
0.552504
0.554502
0.556115
0.557403
0.558417
0.559196
0.559775
0.560182
0.560441
0.560571
0.560589
0.56051
0.560346
0.560107
0.559803
0.559441
0.559027
0.558568
0.558068
0.557533
0.556965
0.556369
0.555746
0.555101
0.554436
0.553751
0.55305
0.552334
0.551605
0.550863
0.550111
0.549349
0.548577
0.547798
0.547012
0.546219
0.545421
0.544617
0.543809
0.542996
0.54218
0.541361
0.540539
0.539715
0.538889
0.53806
0.537231
0.536399
0.535567
0.534734
0.533901
0.533067
0.532232
0.531398
0.530564
0.52973
0.528896
0.528062
0.52723
0.526398
0.525566
0.524736
0.523906
0.523077
0.52225
0.521423
0.520598
0.519774
0.518952
0.518131
0.517311
0.516492
0.515676
0.51486
0.514047
0.513235
0.512424
0.511616
0.510809
0.510004
0.5092
0.508399
0.507599
0.506801
0.506005
0.50521
0.504418
0.503627
0.502839
0.502052
0.501267
0.500485
0.499704
0.498925
0.498148
0.497373
0.4966
0.495829
0.49506
0.494293
0.493529
0.492766
0.492005
0.491246
0.490489
0.489734
0.488981
0.488231
0.487482
0.486735
0.485991
0.485248
0.484507
0.483769
0.483032
0.482298
0.481565
0.480835
0.480106
0.47938
0.478655
0.477933
0.477213
0.476494
0.475778
0.475063
0.474351
0.473641
0.472932
0.472226
0.471522
0.470819
0.470119
0.46942
0.468724
0.468029
0.467337
0.466646
0.465958
0.465271
0.464586
0.463903
0.463222
0.462544
0.461867
0.461191
0.460518
0.459847
0.459178
0.45851
0.457845
0.457181
0.456519
0.455859
0.455201
0.454545
0.453891
0.453238
0.452588
0.451939
0.451292
0.450647
0.450003
0.449362
0.448722
0.448084
0.447448
0.446814
0.446182
0.445551
0.444922
0.444295
0.44367
0.443046
0.442424
0.441804
0.441186
0.440569
0.439954
0.439341
0.438729
0.438119
0.437511
0.436905
0.4363
0.435697
0.435096
0.434496
0.433898
0.433302
0.432707
0.432114
0.431522
0.430933
0.430344
0.429758
0.429173
0.428589
0.428007
0.427427
0.426849
0.426272
0.425696
0.425122
0.42455
0.423979
0.423409
0.422842
0.422275
0.421711
0.421147
0.420586
0.420025
0.419467
0.418909
0.418353
0.417799
0.417246
0.416695
0.416145
0.415596
0.415049
0.414503
0.413959
0.413416
0.412875
0.412334
0.411796
0.411258
0.410722
0.410188
0.409655
0.409123
0.408592
0.408063
0.407535
0.407008
0.406483
0.405959
0.405437
0.404915
0.404395
0.403876
0.403359
0.402843
0.402328
0.401814
0.401302
0.400791
0.400281
0.399772
0.399265
0.398759
0.398254
0.39775
0.397248
0.396747
0.396247
0.395748
0.395251
0.394755
0.39426
0.393766
0.393273
0.392782
0.392292
0.391803
0.391315
0.390829
0.390344
0.38986
0.389377
0.388895
0.388415
0.387936
0.387458
0.386982
0.386506
0.386032
0.385559
0.385088
0.384617
0.384148
0.38368
0.383214
0.382748
0.382284
0.381821
0.38136
0.380899
0.38044
0.379982
0.379526
0.37907
0.378616
0.378164
0.377712
0.377262
0.376813
0.376365
0.375919
0.375473
0.375029
0.374587
0.374145
0.373705
0.373266
0.372828
0.372391
0.371956
0.371522
0.371089
0.370657
0.370226
0.369797
0.369368
0.368941
0.368515
0.36809
0.367666
0.367243
0.366821
0.3664
0.36598
0.365561
0.365143
0.364726
0.364309
0.363894
0.363479
0.363065
0.362652
0.362239
0.361827
0.361416
0.361005
0.360595
0.360185
0.359776
0.359367
0.358958
0.358549
0.358141
0.357733
0.357325
0.356916
0.356508
0.356099
0.35569
0.355281
0.354871
0.354461
0.35405
0.353638
0.353226
0.352812
0.352398
0.351982
0.351565
0.351147
0.350727
0.350306
0.349882
0.349457
0.34903
0.348601
0.34817
0.347736
0.3473
0.346861
0.34642
0.345975
0.345527
0.345077
0.344622
0.344165
0.343704
0.343239
0.34277
0.342298
0.341823
0.341353
0.340908
0.34057
0.379451
0.386516
0.395429
0.405971
0.417679
0.430003
0.442376
0.45434
0.465593
0.475963
0.485375
0.49382
0.501334
0.507981
0.513835
0.518972
0.523469
0.527398
0.530822
0.5338
0.536384
0.53862
0.540549
0.542205
0.543619
0.544819
0.545828
0.546667
0.547354
0.547905
0.548334
0.548654
0.548875
0.549007
0.549059
0.549038
0.548952
0.548806
0.548606
0.548356
0.548061
0.547726
0.547353
0.546946
0.546507
0.54604
0.545546
0.545028
0.544488
0.543927
0.543348
0.542751
0.542139
0.541512
0.540871
0.540218
0.539553
0.538878
0.538193
0.5375
0.536798
0.536088
0.535372
0.534649
0.53392
0.533186
0.532446
0.531703
0.530955
0.530203
0.529448
0.52869
0.527929
0.527165
0.526399
0.525631
0.524862
0.52409
0.523318
0.522544
0.521769
0.520993
0.520216
0.519439
0.518662
0.517884
0.517106
0.516328
0.51555
0.514772
0.513995
0.513217
0.51244
0.511664
0.510888
0.510113
0.509339
0.508565
0.507793
0.507021
0.50625
0.50548
0.504711
0.503943
0.503177
0.502412
0.501647
0.500885
0.500123
0.499363
0.498604
0.497846
0.49709
0.496336
0.495583
0.494831
0.494081
0.493332
0.492585
0.49184
0.491096
0.490354
0.489613
0.488874
0.488137
0.487401
0.486667
0.485935
0.485204
0.484475
0.483748
0.483023
0.482299
0.481577
0.480857
0.480138
0.479422
0.478707
0.477994
0.477282
0.476573
0.475865
0.475159
0.474455
0.473752
0.473052
0.472353
0.471656
0.470961
0.470267
0.469576
0.468886
0.468198
0.467512
0.466827
0.466145
0.465464
0.464785
0.464108
0.463433
0.462759
0.462087
0.461417
0.460749
0.460083
0.459418
0.458756
0.458095
0.457435
0.456778
0.456122
0.455468
0.454816
0.454166
0.453517
0.452871
0.452225
0.451582
0.450941
0.450301
0.449663
0.449026
0.448392
0.447759
0.447128
0.446498
0.44587
0.445244
0.44462
0.443998
0.443377
0.442757
0.44214
0.441524
0.44091
0.440297
0.439686
0.439077
0.43847
0.437864
0.437259
0.436657
0.436056
0.435457
0.434859
0.434263
0.433668
0.433075
0.432484
0.431894
0.431306
0.43072
0.430135
0.429551
0.428969
0.428389
0.42781
0.427233
0.426658
0.426083
0.425511
0.42494
0.42437
0.423802
0.423235
0.42267
0.422107
0.421545
0.420984
0.420425
0.419867
0.419311
0.418756
0.418203
0.417651
0.4171
0.416551
0.416003
0.415457
0.414912
0.414369
0.413826
0.413286
0.412746
0.412208
0.411672
0.411136
0.410602
0.41007
0.409538
0.409008
0.40848
0.407952
0.407426
0.406901
0.406378
0.405856
0.405335
0.404815
0.404297
0.40378
0.403264
0.402749
0.402236
0.401724
0.401213
0.400704
0.400195
0.399688
0.399182
0.398678
0.398174
0.397672
0.397171
0.396671
0.396173
0.395676
0.39518
0.394685
0.394191
0.393699
0.393207
0.392717
0.392229
0.391741
0.391255
0.39077
0.390286
0.389803
0.389321
0.388841
0.388362
0.387884
0.387408
0.386933
0.386459
0.385986
0.385514
0.385044
0.384575
0.384107
0.38364
0.383175
0.382711
0.382248
0.381786
0.381326
0.380867
0.380409
0.379953
0.379497
0.379043
0.37859
0.378139
0.377689
0.37724
0.376792
0.376345
0.3759
0.375456
0.375013
0.374572
0.374132
0.373693
0.373255
0.372818
0.372383
0.371948
0.371515
0.371083
0.370652
0.370223
0.369794
0.369367
0.368941
0.368515
0.368091
0.367668
0.367246
0.366824
0.366404
0.365985
0.365566
0.365149
0.364732
0.364316
0.363901
0.363487
0.363073
0.36266
0.362247
0.361835
0.361424
0.361013
0.360602
0.360192
0.359782
0.359372
0.358963
0.358553
0.358143
0.357734
0.357324
0.356914
0.356504
0.356094
0.355683
0.355271
0.354859
0.354446
0.354032
0.353617
0.353201
0.352784
0.352366
0.351946
0.351525
0.351103
0.350678
0.350252
0.349823
0.349393
0.34896
0.348525
0.348087
0.347647
0.347204
0.346757
0.346308
0.345856
0.3454
0.344941
0.344478
0.344011
0.343541
0.343067
0.342591
0.342118
0.341672
0.341332
0.377291
0.380856
0.385399
0.391002
0.397648
0.405209
0.41346
0.422132
0.430968
0.43975
0.4483
0.45649
0.464233
0.471478
0.478203
0.484404
0.490094
0.495293
0.500027
0.504327
0.508224
0.511747
0.514927
0.517792
0.520368
0.522681
0.524751
0.526601
0.52825
0.529714
0.531009
0.53215
0.533149
0.534019
0.53477
0.535411
0.535953
0.536402
0.536765
0.537051
0.537264
0.53741
0.537495
0.537522
0.537497
0.537422
0.537303
0.537141
0.53694
0.536702
0.536431
0.536128
0.535796
0.535436
0.535051
0.534643
0.534212
0.53376
0.53329
0.532801
0.532295
0.531773
0.531237
0.530687
0.530124
0.529549
0.528963
0.528366
0.527759
0.527144
0.526519
0.525886
0.525246
0.524599
0.523945
0.523285
0.52262
0.521949
0.521273
0.520592
0.519907
0.519218
0.518525
0.517829
0.51713
0.516428
0.515723
0.515015
0.514306
0.513594
0.51288
0.512165
0.511448
0.510729
0.510009
0.509289
0.508567
0.507844
0.507121
0.506397
0.505672
0.504947
0.504222
0.503496
0.502771
0.502045
0.50132
0.500594
0.499869
0.499144
0.498419
0.497695
0.496971
0.496248
0.495526
0.494804
0.494082
0.493362
0.492642
0.491923
0.491204
0.490487
0.489771
0.489055
0.488341
0.487628
0.486915
0.486204
0.485494
0.484785
0.484078
0.483371
0.482666
0.481962
0.481259
0.480558
0.479857
0.479159
0.478461
0.477765
0.47707
0.476377
0.475685
0.474995
0.474306
0.473618
0.472932
0.472247
0.471564
0.470882
0.470202
0.469524
0.468846
0.468171
0.467497
0.466824
0.466153
0.465484
0.464816
0.464149
0.463485
0.462821
0.46216
0.4615
0.460841
0.460185
0.459529
0.458876
0.458223
0.457573
0.456924
0.456277
0.455631
0.454987
0.454345
0.453704
0.453064
0.452427
0.451791
0.451156
0.450523
0.449892
0.449262
0.448634
0.448008
0.447383
0.44676
0.446138
0.445518
0.444899
0.444282
0.443667
0.443053
0.442441
0.44183
0.441221
0.440614
0.440008
0.439403
0.438801
0.438199
0.4376
0.437002
0.436405
0.43581
0.435216
0.434624
0.434034
0.433445
0.432858
0.432272
0.431687
0.431105
0.430523
0.429943
0.429365
0.428788
0.428213
0.427639
0.427066
0.426495
0.425926
0.425358
0.424791
0.424226
0.423662
0.4231
0.422539
0.42198
0.421422
0.420865
0.42031
0.419756
0.419204
0.418653
0.418103
0.417555
0.417008
0.416462
0.415918
0.415375
0.414834
0.414294
0.413755
0.413217
0.412681
0.412146
0.411613
0.41108
0.41055
0.41002
0.409492
0.408964
0.408439
0.407914
0.407391
0.406869
0.406348
0.405829
0.40531
0.404793
0.404277
0.403763
0.40325
0.402737
0.402227
0.401717
0.401208
0.400701
0.400195
0.39969
0.399187
0.398684
0.398183
0.397683
0.397184
0.396686
0.39619
0.395695
0.395201
0.394708
0.394216
0.393726
0.393237
0.392748
0.392262
0.391776
0.391291
0.390808
0.390326
0.389845
0.389366
0.388887
0.38841
0.387934
0.387459
0.386986
0.386514
0.386043
0.385573
0.385104
0.384637
0.384171
0.383706
0.383242
0.38278
0.382319
0.381859
0.3814
0.380943
0.380487
0.380032
0.379578
0.379126
0.378675
0.378225
0.377776
0.377329
0.376882
0.376438
0.375994
0.375551
0.37511
0.37467
0.374231
0.373794
0.373357
0.372922
0.372488
0.372055
0.371623
0.371193
0.370763
0.370335
0.369908
0.369481
0.369056
0.368632
0.368209
0.367787
0.367365
0.366945
0.366526
0.366107
0.365689
0.365273
0.364856
0.364441
0.364026
0.363612
0.363199
0.362786
0.362373
0.361961
0.36155
0.361138
0.360727
0.360317
0.359906
0.359496
0.359085
0.358674
0.358264
0.357853
0.357442
0.35703
0.356618
0.356205
0.355792
0.355378
0.354963
0.354548
0.354131
0.353713
0.353293
0.352873
0.352451
0.352027
0.351601
0.351174
0.350744
0.350313
0.349879
0.349442
0.349004
0.348562
0.348118
0.347671
0.34722
0.346767
0.34631
0.345849
0.345385
0.344917
0.344445
0.34397
0.343493
0.343019
0.342572
0.342231
0.37629
0.378227
0.380644
0.383627
0.387247
0.391536
0.396464
0.401953
0.407893
0.41416
0.42063
0.427183
0.433715
0.44014
0.446389
0.45241
0.458167
0.463636
0.468803
0.473663
0.478217
0.482471
0.486434
0.490117
0.493532
0.496694
0.499615
0.50231
0.504792
0.507075
0.50917
0.511091
0.512848
0.514453
0.515915
0.517243
0.518447
0.519535
0.520514
0.521391
0.522174
0.522868
0.52348
0.524014
0.524475
0.524868
0.525198
0.525468
0.525682
0.525843
0.525955
0.526021
0.526043
0.526025
0.525968
0.525874
0.525747
0.525588
0.525399
0.525181
0.524936
0.524666
0.524372
0.524056
0.523718
0.523361
0.522984
0.52259
0.522178
0.521751
0.521309
0.520852
0.520382
0.519899
0.519404
0.518898
0.518381
0.517853
0.517317
0.516771
0.516216
0.515653
0.515083
0.514505
0.513921
0.51333
0.512733
0.51213
0.511521
0.510908
0.51029
0.509667
0.50904
0.508408
0.507773
0.507135
0.506493
0.505848
0.5052
0.504549
0.503896
0.50324
0.502582
0.501922
0.50126
0.500597
0.499931
0.499265
0.498596
0.497927
0.497257
0.496585
0.495912
0.495239
0.494565
0.49389
0.493215
0.492539
0.491863
0.491187
0.49051
0.489834
0.489157
0.48848
0.487803
0.487126
0.48645
0.485774
0.485098
0.484422
0.483746
0.483072
0.482397
0.481723
0.48105
0.480377
0.479705
0.479033
0.478362
0.477692
0.477023
0.476355
0.475687
0.47502
0.474354
0.473689
0.473025
0.472362
0.4717
0.471039
0.470379
0.46972
0.469062
0.468405
0.467749
0.467095
0.466441
0.465789
0.465138
0.464488
0.463839
0.463192
0.462545
0.4619
0.461257
0.460614
0.459973
0.459333
0.458694
0.458057
0.457421
0.456786
0.456153
0.455521
0.45489
0.454261
0.453633
0.453006
0.452381
0.451757
0.451134
0.450513
0.449893
0.449275
0.448658
0.448042
0.447428
0.446815
0.446204
0.445594
0.444985
0.444378
0.443772
0.443168
0.442565
0.441963
0.441363
0.440764
0.440167
0.439571
0.438977
0.438383
0.437792
0.437201
0.436613
0.436025
0.435439
0.434854
0.434271
0.433689
0.433109
0.43253
0.431952
0.431376
0.430801
0.430227
0.429655
0.429085
0.428515
0.427947
0.427381
0.426815
0.426251
0.425689
0.425128
0.424568
0.424009
0.423452
0.422897
0.422342
0.421789
0.421237
0.420687
0.420138
0.41959
0.419043
0.418498
0.417954
0.417411
0.41687
0.41633
0.415791
0.415254
0.414717
0.414182
0.413649
0.413116
0.412585
0.412055
0.411526
0.410999
0.410473
0.409948
0.409424
0.408901
0.40838
0.407859
0.407341
0.406823
0.406306
0.405791
0.405277
0.404763
0.404252
0.403741
0.403231
0.402723
0.402216
0.40171
0.401205
0.400702
0.400199
0.399698
0.399198
0.398699
0.398201
0.397704
0.397208
0.396714
0.396221
0.395729
0.395238
0.394748
0.39426
0.393772
0.393286
0.392801
0.392317
0.391834
0.391353
0.390872
0.390393
0.389915
0.389438
0.388963
0.388488
0.388015
0.387543
0.387072
0.386603
0.386134
0.385667
0.385201
0.384736
0.384273
0.38381
0.383349
0.382889
0.382431
0.381973
0.381517
0.381062
0.380608
0.380156
0.379705
0.379255
0.378806
0.378358
0.377912
0.377467
0.377023
0.37658
0.376139
0.375699
0.375259
0.374822
0.374385
0.373949
0.373515
0.373082
0.37265
0.372219
0.371789
0.37136
0.370932
0.370506
0.37008
0.369656
0.369232
0.36881
0.368388
0.367967
0.367547
0.367128
0.36671
0.366293
0.365876
0.36546
0.365045
0.364631
0.364217
0.363803
0.36339
0.362978
0.362566
0.362154
0.361743
0.361331
0.36092
0.360509
0.360098
0.359687
0.359276
0.358865
0.358453
0.358041
0.357628
0.357215
0.356802
0.356387
0.355972
0.355555
0.355138
0.35472
0.3543
0.353879
0.353456
0.353032
0.352606
0.352178
0.351748
0.351315
0.350881
0.350444
0.350005
0.349563
0.349118
0.34867
0.348219
0.347765
0.347308
0.346847
0.346382
0.345913
0.345441
0.344965
0.344487
0.344013
0.343565
0.343223
0.375763
0.376876
0.378229
0.37987
0.381853
0.384231
0.387033
0.390263
0.393904
0.397917
0.402253
0.406849
0.41164
0.416562
0.421553
0.426556
0.431524
0.436414
0.441195
0.445838
0.450323
0.454636
0.458767
0.46271
0.466461
0.470021
0.473391
0.476575
0.479577
0.482403
0.485059
0.487551
0.489887
0.492072
0.494114
0.496019
0.497795
0.499447
0.500982
0.502405
0.503723
0.504941
0.506064
0.507097
0.508045
0.508912
0.509703
0.510422
0.511072
0.511657
0.512181
0.512646
0.513056
0.513414
0.513721
0.513982
0.514198
0.514372
0.514505
0.514601
0.514659
0.514684
0.514675
0.514636
0.514567
0.514469
0.514345
0.514196
0.514022
0.513826
0.513607
0.513368
0.513108
0.51283
0.512534
0.512221
0.511891
0.511546
0.511185
0.510811
0.510423
0.510023
0.50961
0.509186
0.50875
0.508304
0.507848
0.507382
0.506907
0.506423
0.505931
0.505431
0.504923
0.504409
0.503887
0.503359
0.502824
0.502284
0.501738
0.501187
0.50063
0.500069
0.499503
0.498933
0.498358
0.49778
0.497197
0.496612
0.496023
0.49543
0.494835
0.494237
0.493636
0.493033
0.492427
0.491819
0.491209
0.490597
0.489983
0.489367
0.488749
0.48813
0.48751
0.486888
0.486266
0.485642
0.485017
0.484391
0.483764
0.483136
0.482508
0.481879
0.481249
0.480619
0.479989
0.479358
0.478727
0.478096
0.477465
0.476833
0.476202
0.47557
0.474938
0.474307
0.473676
0.473045
0.472414
0.471783
0.471153
0.470523
0.469893
0.469264
0.468635
0.468007
0.467379
0.466752
0.466126
0.4655
0.464875
0.46425
0.463626
0.463003
0.46238
0.461759
0.461138
0.460518
0.459899
0.45928
0.458663
0.458046
0.45743
0.456815
0.456202
0.455589
0.454977
0.454366
0.453756
0.453147
0.452539
0.451932
0.451326
0.450721
0.450118
0.449515
0.448914
0.448313
0.447714
0.447116
0.446519
0.445923
0.445328
0.444734
0.444142
0.443551
0.442961
0.442372
0.441784
0.441197
0.440612
0.440028
0.439445
0.438863
0.438282
0.437703
0.437125
0.436548
0.435972
0.435397
0.434824
0.434252
0.433681
0.433111
0.432543
0.431976
0.43141
0.430845
0.430281
0.429719
0.429158
0.428598
0.428039
0.427482
0.426926
0.426371
0.425817
0.425264
0.424713
0.424163
0.423614
0.423066
0.42252
0.421975
0.421431
0.420888
0.420346
0.419806
0.419266
0.418728
0.418192
0.417656
0.417121
0.416588
0.416056
0.415525
0.414995
0.414466
0.413939
0.413413
0.412887
0.412363
0.41184
0.411319
0.410798
0.410279
0.40976
0.409243
0.408727
0.408212
0.407698
0.407186
0.406674
0.406163
0.405654
0.405146
0.404639
0.404133
0.403628
0.403124
0.402621
0.40212
0.401619
0.40112
0.400621
0.400124
0.399628
0.399133
0.398639
0.398146
0.397654
0.397164
0.396674
0.396186
0.395698
0.395212
0.394727
0.394243
0.39376
0.393278
0.392798
0.392318
0.39184
0.391363
0.390886
0.390411
0.389938
0.389465
0.388993
0.388523
0.388054
0.387586
0.387119
0.386653
0.386189
0.385725
0.385263
0.384802
0.384342
0.383884
0.383426
0.38297
0.382515
0.382061
0.381609
0.381157
0.380707
0.380258
0.37981
0.379364
0.378918
0.378474
0.378031
0.377589
0.377149
0.376709
0.376271
0.375834
0.375398
0.374963
0.374529
0.374097
0.373665
0.373235
0.372806
0.372377
0.37195
0.371524
0.371099
0.370675
0.370252
0.36983
0.369409
0.368989
0.368569
0.368151
0.367733
0.367316
0.3669
0.366484
0.366069
0.365655
0.365242
0.364829
0.364416
0.364004
0.363592
0.363181
0.36277
0.362359
0.361948
0.361537
0.361127
0.360716
0.360305
0.359894
0.359483
0.359071
0.358659
0.358246
0.357832
0.357418
0.357003
0.356587
0.35617
0.355752
0.355332
0.354911
0.354489
0.354065
0.353639
0.353211
0.352782
0.35235
0.351916
0.351479
0.35104
0.350599
0.350154
0.349707
0.349256
0.348802
0.348345
0.347884
0.34742
0.346952
0.34648
0.346004
0.345526
0.345052
0.344604
0.344263
0.375453
0.376105
0.376886
0.377816
0.378925
0.38025
0.381821
0.383661
0.385785
0.388193
0.390881
0.393829
0.397015
0.400407
0.403971
0.407671
0.411472
0.415338
0.419237
0.423139
0.427018
0.430852
0.434621
0.438308
0.441902
0.445391
0.448768
0.452027
0.455163
0.458175
0.461061
0.463822
0.466458
0.468971
0.471362
0.473636
0.475794
0.477839
0.479777
0.481608
0.483339
0.484971
0.48651
0.487957
0.489317
0.490594
0.491791
0.49291
0.493956
0.494932
0.495839
0.496682
0.497463
0.498185
0.49885
0.499461
0.50002
0.500529
0.50099
0.501406
0.501779
0.50211
0.502401
0.502655
0.502871
0.503053
0.503202
0.503318
0.503404
0.50346
0.503489
0.503491
0.503467
0.503418