/*--------------------------------*- C++ -*----------------------------------*\
| =========                 |                                                 |
| \\      /  F ield         | OpenFOAM: The Open Source CFD Toolbox           |
|  \\    /   O peration     | Version:  2506                                  |
|   \\  /    A nd           | Website:  www.openfoam.com                      |
|    \\/     M anipulation  |                                                 |
\*---------------------------------------------------------------------------*/
FoamFile
{
    version     2.0;
    format      ascii;
    arch        "LSB;label=32;scalar=64";
    class       volScalarField;
    location    "500";
    object      nut;
}
// * * * * * * * * * * * * * * * * * * * * * * * * * * * * * * * * * * * * * //

dimensions      [0 2 -1 0 0 0 0];

internalField   nonuniform List<scalar> 
131949
(
0.0659348
0.068194
0.0682839
0.0682257
0.0682935
0.068426
0.0685771
0.0687316
0.0688828
0.0690269
0.0691624
0.0692893
0.0694082
0.0695195
0.0696239
0.0697221
0.0698146
0.069902
0.0699846
0.070063
0.0701374
0.0702082
0.0702757
0.0703401
0.0704017
0.0704606
0.0705172
0.0705714
0.0706236
0.0706737
0.070722
0.0707686
0.0708135
0.070857
0.0708989
0.0709395
0.0709788
0.0710169
0.0710539
0.0710897
0.0711245
0.0711583
0.0711912
0.0712231
0.0712543
0.0712846
0.0713141
0.0713429
0.0713709
0.0713983
0.071425
0.0714511
0.0714766
0.0715015
0.0715259
0.0715497
0.071573
0.0715958
0.0716182
0.0716401
0.0716615
0.0716825
0.0717031
0.0717233
0.071743
0.0717625
0.0717815
0.0718002
0.0718186
0.0718366
0.0718544
0.0718718
0.0718889
0.0719057
0.0719222
0.0719385
0.0719545
0.0719702
0.0719857
0.0720009
0.0720159
0.0720307
0.0720452
0.0720596
0.0720737
0.0720876
0.0721012
0.0721147
0.072128
0.0721411
0.0721541
0.0721668
0.0721794
0.0721918
0.072204
0.0722161
0.072228
0.0722397
0.0722513
0.0722628
0.0722741
0.0722852
0.0722962
0.0723071
0.0723178
0.0723285
0.0723389
0.0723493
0.0723595
0.0723696
0.0723796
0.0723895
0.0723993
0.0724089
0.0724185
0.0724279
0.0724372
0.0724464
0.0724556
0.0724646
0.0724735
0.0724823
0.0724911
0.0724997
0.0725083
0.0725167
0.0725251
0.0725334
0.0725416
0.0725497
0.0725577
0.0725657
0.0725735
0.0725813
0.072589
0.0725967
0.0726042
0.0726117
0.0726192
0.0726265
0.0726338
0.072641
0.0726481
0.0726552
0.0726622
0.0726691
0.072676
0.0726828
0.0726896
0.0726963
0.0727029
0.0727095
0.072716
0.0727224
0.0727288
0.0727352
0.0727414
0.0727477
0.0727538
0.0727599
0.072766
0.072772
0.072778
0.0727839
0.0727897
0.0727955
0.0728013
0.072807
0.0728126
0.0728182
0.0728238
0.0728293
0.0728347
0.0728402
0.0728455
0.0728508
0.0728561
0.0728614
0.0728665
0.0728717
0.0728768
0.0728818
0.0728868
0.0728918
0.0728967
0.0729016
0.0729065
0.0729113
0.072916
0.0729207
0.0729254
0.0729301
0.0729347
0.0729392
0.0729437
0.0729482
0.0729526
0.072957
0.0729614
0.0729657
0.07297
0.0729743
0.0729785
0.0729827
0.0729868
0.0729909
0.072995
0.072999
0.073003
0.0730069
0.0730108
0.0730147
0.0730186
0.0730224
0.0730261
0.0730299
0.0730336
0.0730372
0.0730409
0.0730444
0.073048
0.0730515
0.073055
0.0730584
0.0730619
0.0730652
0.0730686
0.0730719
0.0730751
0.0730784
0.0730816
0.0730847
0.0730878
0.0730909
0.073094
0.073097
0.0730999
0.0731029
0.0731058
0.0731086
0.0731114
0.0731142
0.073117
0.0731197
0.0731224
0.073125
0.0731276
0.0731301
0.0731326
0.0731351
0.0731376
0.07314
0.0731423
0.0731446
0.0731469
0.0731492
0.0731514
0.0731536
0.0731557
0.0731578
0.0731598
0.0731619
0.0731639
0.0731658
0.0731677
0.0731696
0.0731715
0.0731733
0.0731751
0.0731768
0.0731786
0.0731803
0.0731819
0.0731836
0.0731852
0.0731868
0.0731884
0.0731899
0.0731915
0.073193
0.0731945
0.0731959
0.0731974
0.0731989
0.0732003
0.0732017
0.0732032
0.0732046
0.073206
0.0732074
0.0732089
0.0732103
0.0732117
0.0732131
0.0732146
0.073216
0.0732175
0.073219
0.0732204
0.073222
0.0732235
0.073225
0.0732266
0.0732282
0.0732298
0.0732314
0.0732331
0.0732348
0.0732365
0.0732383
0.07324
0.0732419
0.0732437
0.0732456
0.0732475
0.0732494
0.0732514
0.0732534
0.0732554
0.0732575
0.0732596
0.0732617
0.0732638
0.073266
0.0732682
0.0732704
0.0732726
0.0732748
0.073277
0.0732793
0.0732815
0.0732838
0.073286
0.0732883
0.0732905
0.0732926
0.0732948
0.0732969
0.073299
0.073301
0.073303
0.0733049
0.0733067
0.0733085
0.0733101
0.0733117
0.0733131
0.0733144
0.0733156
0.0733166
0.0733174
0.073318
0.0733185
0.0733187
0.0733187
0.0733185
0.0733179
0.0733171
0.073316
0.0733146
0.0733128
0.0733106
0.073308
0.073305
0.0733016
0.0732977
0.0732932
0.0732883
0.0732828
0.0732767
0.0732699
0.0732625
0.0732545
0.0732456
0.0732361
0.0732257
0.0732145
0.0732024
0.0731895
0.0731755
0.0731606
0.0731446
0.0731276
0.0731095
0.0730902
0.0730697
0.0730479
0.0730249
0.0730006
0.0729748
0.0729477
0.0729191
0.072889
0.0728573
0.0728242
0.0727895
0.0727538
0.0727184
0.0726877
0.0726731
0.0637129
0.066255
0.0678732
0.0686936
0.0691245
0.0693616
0.0694973
0.069589
0.0696653
0.0697364
0.0698059
0.0698749
0.0699433
0.0700109
0.0700773
0.0701423
0.0702055
0.0702669
0.0703265
0.0703843
0.0704402
0.0704942
0.0705466
0.0705972
0.0706461
0.0706935
0.0707394
0.0707839
0.070827
0.0708687
0.0709092
0.0709485
0.0709867
0.0710238
0.0710598
0.0710948
0.0711289
0.0711621
0.0711944
0.0712258
0.0712565
0.0712863
0.0713155
0.0713439
0.0713717
0.0713988
0.0714253
0.0714512
0.0714765
0.0715012
0.0715254
0.0715491
0.0715723
0.071595
0.0716172
0.071639
0.0716603
0.0716813
0.0717018
0.0717219
0.0717417
0.0717611
0.0717801
0.0717988
0.0718171
0.0718352
0.0718529
0.0718703
0.0718874
0.0719042
0.0719207
0.071937
0.071953
0.0719687
0.0719842
0.0719995
0.0720145
0.0720292
0.0720438
0.0720581
0.0720723
0.0720862
0.0720999
0.0721134
0.0721267
0.0721398
0.0721528
0.0721656
0.0721782
0.0721906
0.0722028
0.0722149
0.0722268
0.0722386
0.0722502
0.0722617
0.072273
0.0722842
0.0722953
0.0723062
0.0723169
0.0723276
0.0723381
0.0723485
0.0723587
0.0723689
0.0723789
0.0723888
0.0723986
0.0724082
0.0724178
0.0724273
0.0724366
0.0724459
0.072455
0.0724641
0.072473
0.0724819
0.0724906
0.0724993
0.0725078
0.0725163
0.0725247
0.072533
0.0725413
0.0725494
0.0725574
0.0725654
0.0725733
0.0725811
0.0725889
0.0725965
0.0726041
0.0726116
0.0726191
0.0726264
0.0726337
0.072641
0.0726481
0.0726552
0.0726623
0.0726692
0.0726761
0.072683
0.0726897
0.0726964
0.0727031
0.0727097
0.0727162
0.0727227
0.0727291
0.0727355
0.0727418
0.072748
0.0727542
0.0727603
0.0727664
0.0727724
0.0727784
0.0727843
0.0727902
0.072796
0.0728018
0.0728075
0.0728132
0.0728188
0.0728244
0.07283
0.0728354
0.0728409
0.0728463
0.0728516
0.0728569
0.0728622
0.0728674
0.0728726
0.0728777
0.0728828
0.0728878
0.0728928
0.0728978
0.0729027
0.0729075
0.0729124
0.0729172
0.0729219
0.0729266
0.0729313
0.0729359
0.0729405
0.0729451
0.0729496
0.072954
0.0729585
0.0729629
0.0729672
0.0729716
0.0729758
0.0729801
0.0729843
0.0729885
0.0729926
0.0729967
0.0730008
0.0730048
0.0730088
0.0730127
0.0730167
0.0730205
0.0730244
0.0730282
0.073032
0.0730357
0.0730394
0.0730431
0.0730467
0.0730503
0.0730539
0.0730574
0.0730609
0.0730644
0.0730678
0.0730712
0.0730746
0.0730779
0.0730812
0.0730844
0.0730876
0.0730908
0.073094
0.0730971
0.0731001
0.0731032
0.0731062
0.0731091
0.0731121
0.0731149
0.0731178
0.0731206
0.0731234
0.0731261
0.0731288
0.0731315
0.0731341
0.0731367
0.0731393
0.0731418
0.0731443
0.0731467
0.0731491
0.0731515
0.0731538
0.0731561
0.0731584
0.0731606
0.0731628
0.0731649
0.073167
0.0731691
0.0731711
0.0731731
0.073175
0.073177
0.0731789
0.0731807
0.0731825
0.0731843
0.0731861
0.0731878
0.0731895
0.0731912
0.0731928
0.0731944
0.073196
0.0731976
0.0731991
0.0732006
0.0732021
0.0732036
0.073205
0.0732065
0.0732079
0.0732093
0.0732107
0.0732121
0.0732135
0.0732149
0.0732162
0.0732176
0.073219
0.0732204
0.0732217
0.0732231
0.0732245
0.0732259
0.0732273
0.0732287
0.0732302
0.0732316
0.0732331
0.0732346
0.0732361
0.0732376
0.0732392
0.0732407
0.0732423
0.073244
0.0732456
0.0732473
0.073249
0.0732508
0.0732526
0.0732544
0.0732562
0.0732581
0.07326
0.073262
0.0732639
0.0732659
0.073268
0.07327
0.0732721
0.0732742
0.0732763
0.0732785
0.0732807
0.0732828
0.073285
0.0732873
0.0732895
0.0732917
0.0732939
0.0732961
0.0732983
0.0733005
0.0733026
0.0733047
0.0733068
0.0733088
0.0733108
0.0733128
0.0733146
0.0733164
0.0733181
0.0733197
0.0733212
0.0733225
0.0733238
0.0733249
0.0733258
0.0733265
0.0733271
0.0733275
0.0733276
0.0733275
0.0733272
0.0733266
0.0733257
0.0733244
0.0733229
0.073321
0.0733187
0.073316
0.0733128
0.0733093
0.0733052
0.0733006
0.0732955
0.0732898
0.0732835
0.0732766
0.073269
0.0732607
0.0732517
0.0732419
0.0732313
0.0732199
0.0732075
0.0731943
0.0731801
0.0731649
0.0731486
0.0731313
0.0731128
0.0730932
0.0730723
0.0730503
0.0730269
0.0730021
0.072976
0.0729485
0.0729194
0.0728889
0.0728569
0.0728232
0.0727881
0.072752
0.0727161
0.072685
0.07267
0.0627756
0.0647438
0.0664136
0.0676594
0.0685604
0.069196
0.0696294
0.0699228
0.0701254
0.0702696
0.0703765
0.0704596
0.0705274
0.0705855
0.0706371
0.0706843
0.0707285
0.0707704
0.0708107
0.0708495
0.0708872
0.0709239
0.0709597
0.0709946
0.0710288
0.0710621
0.0710948
0.0711267
0.0711579
0.0711885
0.0712184
0.0712477
0.0712764
0.0713045
0.071332
0.071359
0.0713853
0.0714112
0.0714365
0.0714614
0.0714857
0.0715095
0.0715329
0.0715559
0.0715784
0.0716004
0.0716221
0.0716434
0.0716642
0.0716847
0.0717048
0.0717246
0.071744
0.0717631
0.0717818
0.0718002
0.0718183
0.0718361
0.0718536
0.0718709
0.0718878
0.0719045
0.0719208
0.071937
0.0719529
0.0719685
0.0719839
0.0719991
0.072014
0.0720287
0.0720432
0.0720575
0.0720716
0.0720854
0.0720991
0.0721126
0.0721259
0.072139
0.0721519
0.0721647
0.0721773
0.0721897
0.0722019
0.072214
0.0722259
0.0722377
0.0722494
0.0722608
0.0722722
0.0722834
0.0722944
0.0723053
0.0723161
0.0723268
0.0723373
0.0723477
0.072358
0.0723682
0.0723782
0.0723881
0.072398
0.0724077
0.0724173
0.0724267
0.0724361
0.0724454
0.0724546
0.0724637
0.0724726
0.0724815
0.0724903
0.072499
0.0725076
0.0725161
0.0725246
0.0725329
0.0725412
0.0725493
0.0725574
0.0725654
0.0725734
0.0725812
0.072589
0.0725967
0.0726043
0.0726119
0.0726193
0.0726267
0.0726341
0.0726413
0.0726485
0.0726557
0.0726627
0.0726697
0.0726767
0.0726835
0.0726903
0.0726971
0.0727038
0.0727104
0.072717
0.0727235
0.0727299
0.0727363
0.0727427
0.0727489
0.0727552
0.0727613
0.0727675
0.0727735
0.0727795
0.0727855
0.0727914
0.0727973
0.0728031
0.0728089
0.0728146
0.0728203
0.0728259
0.0728315
0.072837
0.0728425
0.0728479
0.0728533
0.0728587
0.072864
0.0728692
0.0728744
0.0728796
0.0728847
0.0728898
0.0728949
0.0728999
0.0729048
0.0729098
0.0729147
0.0729195
0.0729243
0.0729291
0.0729338
0.0729385
0.0729431
0.0729477
0.0729523
0.0729568
0.0729613
0.0729658
0.0729702
0.0729746
0.072979
0.0729833
0.0729875
0.0729918
0.072996
0.0730002
0.0730043
0.0730084
0.0730125
0.0730165
0.0730205
0.0730244
0.0730284
0.0730323
0.0730361
0.0730399
0.0730437
0.0730475
0.0730512
0.0730549
0.0730586
0.0730622
0.0730658
0.0730693
0.0730728
0.0730763
0.0730798
0.0730832
0.0730866
0.0730899
0.0730933
0.0730966
0.0730998
0.073103
0.0731062
0.0731094
0.0731125
0.0731156
0.0731186
0.0731217
0.0731246
0.0731276
0.0731305
0.0731334
0.0731362
0.073139
0.0731418
0.0731446
0.0731473
0.0731499
0.0731526
0.0731552
0.0731577
0.0731602
0.0731627
0.0731652
0.0731676
0.07317
0.0731723
0.0731746
0.0731769
0.0731791
0.0731813
0.0731835
0.0731856
0.0731877
0.0731897
0.0731917
0.0731937
0.0731957
0.0731976
0.0731994
0.0732013
0.0732031
0.0732048
0.0732066
0.0732083
0.0732099
0.0732116
0.0732132
0.0732148
0.0732163
0.0732178
0.0732193
0.0732208
0.0732223
0.0732237
0.0732251
0.0732265
0.0732279
0.0732292
0.0732305
0.0732319
0.0732332
0.0732345
0.0732358
0.0732371
0.0732383
0.0732396
0.0732409
0.0732422
0.0732434
0.0732447
0.073246
0.0732473
0.0732486
0.0732499
0.0732513
0.0732526
0.073254
0.0732554
0.0732568
0.0732582
0.0732596
0.0732611
0.0732626
0.0732641
0.0732657
0.0732673
0.0732689
0.0732705
0.0732722
0.0732739
0.0732756
0.0732774
0.0732792
0.0732811
0.0732829
0.0732848
0.0732868
0.0732887
0.0732907
0.0732927
0.0732948
0.0732968
0.0732989
0.073301
0.0733031
0.0733053
0.0733074
0.0733096
0.0733117
0.0733139
0.073316
0.0733181
0.0733202
0.0733223
0.0733244
0.0733264
0.0733283
0.0733303
0.0733321
0.0733339
0.0733356
0.0733372
0.0733387
0.0733401
0.0733414
0.0733426
0.0733436
0.0733444
0.0733451
0.0733456
0.0733459
0.0733459
0.0733457
0.0733453
0.0733445
0.0733435
0.0733422
0.0733405
0.0733385
0.0733361
0.0733332
0.07333
0.0733262
0.073322
0.0733173
0.073312
0.0733062
0.0732997
0.0732926
0.0732848
0.0732764
0.0732672
0.0732572
0.0732463
0.0732347
0.0732221
0.0732087
0.0731942
0.0731788
0.0731622
0.0731446
0.0731259
0.073106
0.0730849
0.0730625
0.0730388
0.0730137
0.0729873
0.0729594
0.07293
0.0728992
0.0728667
0.0728327
0.0727973
0.0727607
0.0727244
0.072693
0.0726777
0.0620602
0.063308
0.0646078
0.0658342
0.0669193
0.0678343
0.0685744
0.0691571
0.0696102
0.069961
0.0702328
0.0704447
0.0706117
0.070745
0.070853
0.0709422
0.0710171
0.071081
0.0711366
0.0711857
0.0712298
0.0712698
0.0713066
0.0713407
0.0713727
0.071403
0.0714317
0.0714591
0.0714855
0.0715108
0.0715354
0.0715591
0.0715822
0.0716047
0.0716266
0.071648
0.0716689
0.0716894
0.0717094
0.071729
0.0717483
0.0717671
0.0717857
0.0718039
0.0718218
0.0718394
0.0718566
0.0718736
0.0718904
0.0719068
0.071923
0.071939
0.0719547
0.0719702
0.0719854
0.0720004
0.0720152
0.0720298
0.0720441
0.0720583
0.0720723
0.072086
0.0720996
0.072113
0.0721262
0.0721393
0.0721521
0.0721648
0.0721773
0.0721897
0.0722019
0.072214
0.0722259
0.0722376
0.0722492
0.0722607
0.072272
0.0722832
0.0722942
0.0723051
0.0723159
0.0723266
0.0723371
0.0723475
0.0723578
0.072368
0.072378
0.072388
0.0723978
0.0724075
0.0724172
0.0724267
0.0724361
0.0724454
0.0724546
0.0724637
0.0724727
0.0724816
0.0724904
0.0724992
0.0725078
0.0725163
0.0725248
0.0725332
0.0725415
0.0725497
0.0725578
0.0725659
0.0725738
0.0725817
0.0725895
0.0725973
0.0726049
0.0726125
0.07262
0.0726275
0.0726349
0.0726422
0.0726494
0.0726566
0.0726637
0.0726707
0.0726777
0.0726846
0.0726915
0.0726983
0.072705
0.0727117
0.0727183
0.0727248
0.0727313
0.0727378
0.0727441
0.0727505
0.0727567
0.072763
0.0727691
0.0727753
0.0727813
0.0727873
0.0727933
0.0727992
0.0728051
0.0728109
0.0728167
0.0728224
0.0728281
0.0728337
0.0728393
0.0728448
0.0728503
0.0728557
0.0728611
0.0728665
0.0728718
0.0728771
0.0728823
0.0728875
0.0728927
0.0728978
0.0729029
0.0729079
0.0729129
0.0729178
0.0729227
0.0729276
0.0729324
0.0729372
0.072942
0.0729467
0.0729514
0.072956
0.0729607
0.0729652
0.0729698
0.0729743
0.0729787
0.0729832
0.0729876
0.0729919
0.0729962
0.0730005
0.0730048
0.073009
0.0730132
0.0730174
0.0730215
0.0730256
0.0730296
0.0730337
0.0730377
0.0730416
0.0730455
0.0730494
0.0730533
0.0730571
0.0730609
0.0730647
0.0730684
0.0730721
0.0730758
0.0730794
0.073083
0.0730866
0.0730902
0.0730937
0.0730972
0.0731006
0.0731041
0.0731074
0.0731108
0.0731141
0.0731174
0.0731207
0.0731239
0.0731272
0.0731303
0.0731335
0.0731366
0.0731397
0.0731427
0.0731457
0.0731487
0.0731517
0.0731546
0.0731575
0.0731604
0.0731632
0.073166
0.0731688
0.0731715
0.0731742
0.0731769
0.0731795
0.0731821
0.0731847
0.0731872
0.0731897
0.0731922
0.0731946
0.073197
0.0731994
0.0732017
0.073204
0.0732063
0.0732085
0.0732107
0.0732129
0.073215
0.0732171
0.0732191
0.0732211
0.0732231
0.0732251
0.073227
0.0732288
0.0732307
0.0732325
0.0732342
0.073236
0.0732377
0.0732393
0.073241
0.0732426
0.0732441
0.0732457
0.0732472
0.0732487
0.0732501
0.0732515
0.0732529
0.0732543
0.0732556
0.073257
0.0732583
0.0732595
0.0732608
0.073262
0.0732633
0.0732645
0.0732656
0.0732668
0.073268
0.0732692
0.0732703
0.0732714
0.0732726
0.0732737
0.0732749
0.073276
0.0732771
0.0732783
0.0732795
0.0732806
0.0732818
0.073283
0.0732842
0.0732854
0.0732866
0.0732879
0.0732892
0.0732905
0.0732918
0.0732932
0.0732945
0.073296
0.0732974
0.0732989
0.0733004
0.0733019
0.0733035
0.073305
0.0733067
0.0733083
0.07331
0.0733118
0.0733135
0.0733153
0.0733172
0.073319
0.0733209
0.0733228
0.0733248
0.0733267
0.0733287
0.0733307
0.0733327
0.0733348
0.0733368
0.0733389
0.0733409
0.073343
0.073345
0.0733471
0.0733491
0.0733511
0.073353
0.0733549
0.0733568
0.0733586
0.0733604
0.0733621
0.0733637
0.0733652
0.0733666
0.073368
0.0733691
0.0733702
0.0733711
0.0733718
0.0733724
0.0733728
0.073373
0.0733729
0.0733726
0.0733721
0.0733712
0.0733701
0.0733687
0.0733669
0.0733647
0.0733622
0.0733592
0.0733558
0.073352
0.0733476
0.0733428
0.0733373
0.0733313
0.0733247
0.0733175
0.0733096
0.0733009
0.0732915
0.0732814
0.0732704
0.0732586
0.0732458
0.0732322
0.0732175
0.0732019
0.0731852
0.0731673
0.0731484
0.0731283
0.0731069
0.0730843
0.0730603
0.073035
0.0730083
0.0729802
0.0729506
0.0729194
0.0728867
0.0728524
0.0728167
0.0727798
0.0727433
0.0727115
0.072696
0.0616763
0.0623976
0.0632484
0.0641755
0.0651192
0.0660283
0.0668644
0.0676064
0.0682488
0.0687958
0.0692563
0.0696416
0.069963
0.0702312
0.0704556
0.070644
0.0708031
0.0709383
0.071054
0.0711537
0.0712403
0.0713161
0.0713829
0.0714423
0.0714955
0.0715435
0.0715871
0.0716269
0.0716635
0.0716974
0.0717289
0.0717583
0.071786
0.0718121
0.0718368
0.0718603
0.0718828
0.0719042
0.0719248
0.0719446
0.0719637
0.0719821
0.072
0.0720173
0.0720341
0.0720505
0.0720664
0.072082
0.0720971
0.072112
0.0721265
0.0721407
0.0721546
0.0721683
0.0721817
0.0721948
0.0722077
0.0722204
0.0722329
0.0722452
0.0722573
0.0722692
0.0722809
0.0722924
0.0723038
0.072315
0.0723261
0.072337
0.0723478
0.0723584
0.0723689
0.0723792
0.0723894
0.0723995
0.0724094
0.0724193
0.072429
0.0724386
0.0724481
0.0724575
0.0724668
0.0724759
0.072485
0.072494
0.0725028
0.0725116
0.0725203
0.0725288
0.0725373
0.0725457
0.0725541
0.0725623
0.0725704
0.0725785
0.0725865
0.0725944
0.0726022
0.0726099
0.0726176
0.0726252
0.0726327
0.0726402
0.0726475
0.0726548
0.0726621
0.0726692
0.0726763
0.0726834
0.0726904
0.0726973
0.0727041
0.0727109
0.0727176
0.0727243
0.0727309
0.0727374
0.0727439
0.0727504
0.0727567
0.0727631
0.0727693
0.0727756
0.0727817
0.0727878
0.0727939
0.0727999
0.0728059
0.0728118
0.0728176
0.0728234
0.0728292
0.0728349
0.0728406
0.0728462
0.0728518
0.0728573
0.0728628
0.0728683
0.0728737
0.072879
0.0728844
0.0728896
0.0728949
0.0729001
0.0729052
0.0729103
0.0729154
0.0729204
0.0729254
0.0729304
0.0729353
0.0729402
0.0729451
0.0729499
0.0729547
0.0729594
0.0729641
0.0729688
0.0729734
0.072978
0.0729826
0.0729871
0.0729916
0.072996
0.0730005
0.0730049
0.0730092
0.0730136
0.0730178
0.0730221
0.0730263
0.0730305
0.0730347
0.0730388
0.073043
0.073047
0.0730511
0.0730551
0.0730591
0.073063
0.0730669
0.0730708
0.0730747
0.0730785
0.0730823
0.0730861
0.0730898
0.0730935
0.0730972
0.0731009
0.0731045
0.0731081
0.0731117
0.0731152
0.0731187
0.0731222
0.0731257
0.0731291
0.0731325
0.0731359
0.0731392
0.0731425
0.0731458
0.0731491
0.0731523
0.0731555
0.0731587
0.0731618
0.0731649
0.073168
0.0731711
0.0731741
0.0731771
0.0731801
0.0731831
0.073186
0.0731889
0.0731917
0.0731946
0.0731974
0.0732002
0.0732029
0.0732056
0.0732083
0.073211
0.0732136
0.0732162
0.0732188
0.0732214
0.0732239
0.0732264
0.0732288
0.0732312
0.0732336
0.073236
0.0732383
0.0732406
0.0732429
0.0732451
0.0732473
0.0732495
0.0732516
0.0732538
0.0732558
0.0732579
0.0732599
0.0732618
0.0732638
0.0732657
0.0732676
0.0732694
0.0732712
0.073273
0.0732747
0.0732764
0.0732781
0.0732797
0.0732813
0.0732829
0.0732844
0.0732859
0.0732874
0.0732888
0.0732902
0.0732916
0.0732929
0.0732942
0.0732955
0.0732968
0.073298
0.0732992
0.0733004
0.0733016
0.0733027
0.0733038
0.0733049
0.073306
0.0733071
0.0733081
0.0733091
0.0733102
0.0733112
0.0733121
0.0733131
0.0733141
0.0733151
0.0733161
0.073317
0.073318
0.073319
0.07332
0.073321
0.0733219
0.073323
0.073324
0.073325
0.073326
0.0733271
0.0733282
0.0733293
0.0733304
0.0733316
0.0733328
0.073334
0.0733352
0.0733365
0.0733377
0.0733391
0.0733404
0.0733418
0.0733432
0.0733447
0.0733462
0.0733477
0.0733493
0.0733509
0.0733525
0.0733542
0.0733559
0.0733576
0.0733594
0.0733611
0.073363
0.0733648
0.0733667
0.0733686
0.0733705
0.0733724
0.0733743
0.0733762
0.0733782
0.0733801
0.073382
0.0733839
0.0733858
0.0733877
0.0733896
0.0733914
0.0733931
0.0733949
0.0733965
0.0733981
0.0733996
0.073401
0.0734023
0.0734035
0.0734046
0.0734056
0.0734064
0.073407
0.0734075
0.0734078
0.0734078
0.0734077
0.0734073
0.0734066
0.0734057
0.0734044
0.0734029
0.073401
0.0733987
0.0733961
0.073393
0.0733895
0.0733855
0.0733811
0.0733761
0.0733706
0.0733644
0.0733577
0.0733503
0.0733423
0.0733335
0.073324
0.0733137
0.0733026
0.0732907
0.0732778
0.073264
0.0732492
0.0732334
0.0732166
0.0731986
0.0731795
0.0731592
0.0731377
0.0731149
0.0730908
0.0730654
0.0730385
0.0730102
0.0729804
0.0729491
0.0729162
0.0728817
0.0728458
0.0728087
0.072772
0.0727401
0.0727245
0.0614873
0.0618997
0.0624111
0.0630134
0.0636872
0.0644048
0.0651352
0.0658501
0.0665284
0.0671565
0.0677272
0.0682387
0.0686924
0.069092
0.0694424
0.069749
0.070017
0.0702515
0.0704568
0.070637
0.0707957
0.0709358
0.0710599
0.0711703
0.0712689
0.0713573
0.0714368
0.0715087
0.0715739
0.0716332
0.0716875
0.0717373
0.0717831
0.0718254
0.0718647
0.0719012
0.0719353
0.0719672
0.0719972
0.0720254
0.072052
0.0720772
0.072101
0.0721238
0.0721454
0.0721661
0.0721859
0.0722048
0.0722231
0.0722406
0.0722575
0.0722738
0.0722895
0.0723048
0.0723195
0.0723339
0.0723478
0.0723614
0.0723745
0.0723874
0.0723999
0.0724121
0.0724241
0.0724357
0.0724472
0.0724584
0.0724693
0.07248
0.0724906
0.0725009
0.0725111
0.072521
0.0725308
0.0725405
0.0725499
0.0725593
0.0725684
0.0725775
0.0725864
0.0725951
0.0726038
0.0726123
0.0726207
0.072629
0.0726372
0.0726453
0.0726533
0.0726611
0.0726689
0.0726766
0.0726842
0.0726917
0.0726991
0.0727064
0.0727137
0.0727208
0.0727279
0.0727349
0.0727419
0.0727487
0.0727555
0.0727622
0.0727689
0.0727755
0.072782
0.0727884
0.0727948
0.0728011
0.0728074
0.0728136
0.0728198
0.0728258
0.0728319
0.0728378
0.0728438
0.0728496
0.0728555
0.0728612
0.0728669
0.0728726
0.0728782
0.0728838
0.0728893
0.0728947
0.0729002
0.0729055
0.0729109
0.0729162
0.0729214
0.0729266
0.0729318
0.0729369
0.072942
0.072947
0.072952
0.0729569
0.0729619
0.0729667
0.0729716
0.0729764
0.0729811
0.0729859
0.0729905
0.0729952
0.0729998
0.0730044
0.073009
0.0730135
0.0730179
0.0730224
0.0730268
0.0730312
0.0730355
0.0730398
0.0730441
0.0730484
0.0730526
0.0730568
0.073061
0.0730651
0.0730692
0.0730732
0.0730773
0.0730813
0.0730853
0.0730892
0.0730931
0.073097
0.0731009
0.0731047
0.0731085
0.0731123
0.073116
0.0731198
0.0731235
0.0731271
0.0731308
0.0731344
0.073138
0.0731415
0.0731451
0.0731486
0.073152
0.0731555
0.0731589
0.0731623
0.0731657
0.073169
0.0731724
0.0731757
0.0731789
0.0731822
0.0731854
0.0731886
0.0731917
0.0731949
0.073198
0.0732011
0.0732042
0.0732072
0.0732102
0.0732132
0.0732162
0.0732191
0.073222
0.0732249
0.0732278
0.0732306
0.0732334
0.0732362
0.073239
0.0732417
0.0732444
0.0732471
0.0732498
0.0732524
0.073255
0.0732576
0.0732602
0.0732627
0.0732652
0.0732677
0.0732701
0.0732726
0.073275
0.0732773
0.0732797
0.073282
0.0732843
0.0732865
0.0732888
0.073291
0.0732931
0.0732953
0.0732974
0.0732995
0.0733016
0.0733036
0.0733056
0.0733075
0.0733095
0.0733114
0.0733132
0.0733151
0.0733169
0.0733187
0.0733204
0.0733221
0.0733238
0.0733255
0.0733271
0.0733287
0.0733302
0.0733317
0.0733332
0.0733347
0.0733361
0.0733375
0.0733388
0.0733402
0.0733415
0.0733427
0.073344
0.0733452
0.0733463
0.0733475
0.0733486
0.0733497
0.0733507
0.0733518
0.0733528
0.0733538
0.0733547
0.0733557
0.0733566
0.0733575
0.0733584
0.0733593
0.0733601
0.073361
0.0733618
0.0733626
0.0733634
0.0733642
0.073365
0.0733658
0.0733666
0.0733674
0.0733682
0.073369
0.0733698
0.0733706
0.0733714
0.0733723
0.0733731
0.073374
0.0733748
0.0733757
0.0733766
0.0733776
0.0733785
0.0733795
0.0733805
0.0733816
0.0733826
0.0733837
0.0733849
0.073386
0.0733872
0.0733885
0.0733897
0.073391
0.0733924
0.0733938
0.0733952
0.0733966
0.0733981
0.0733996
0.0734012
0.0734028
0.0734044
0.073406
0.0734077
0.0734094
0.0734111
0.0734129
0.0734146
0.0734164
0.0734182
0.07342
0.0734218
0.0734236
0.0734254
0.0734272
0.073429
0.0734308
0.0734325
0.0734342
0.0734358
0.0734374
0.073439
0.0734404
0.0734418
0.0734431
0.0734444
0.0734455
0.0734464
0.0734473
0.073448
0.0734485
0.0734489
0.073449
0.073449
0.0734488
0.0734483
0.0734475
0.0734465
0.0734451
0.0734435
0.0734415
0.0734391
0.0734364
0.0734333
0.0734297
0.0734256
0.0734211
0.073416
0.0734104
0.0734042
0.0733974
0.0733899
0.0733818
0.073373
0.0733634
0.073353
0.0733418
0.0733298
0.0733168
0.0733029
0.0732881
0.0732722
0.0732553
0.0732372
0.0732181
0.0731977
0.0731761
0.0731533
0.0731291
0.0731036
0.0730766
0.0730483
0.0730184
0.072987
0.0729541
0.0729195
0.0728835
0.0728464
0.0728096
0.0727776
0.072762
0.0613929
0.0616395
0.0619447
0.0623136
0.0627464
0.0632374
0.0637743
0.0643412
0.0649214
0.0654994
0.0660622
0.0666002
0.0671065
0.0675774
0.068011
0.0684075
0.0687681
0.0690948
0.06939
0.0696565
0.0698969
0.0701136
0.0703093
0.0704861
0.0706461
0.0707911
0.0709228
0.0710426
0.0711518
0.0712516
0.071343
0.071427
0.0715042
0.0715754
0.0716411
0.0717021
0.0717586
0.0718113
0.0718603
0.0719061
0.071949
0.0719893
0.0720271
0.0720627
0.0720962
0.0721279
0.072158
0.0721864
0.0722135
0.0722392
0.0722636
0.072287
0.0723093
0.0723307
0.0723511
0.0723707
0.0723896
0.0724077
0.0724251
0.0724419
0.0724581
0.0724738
0.0724889
0.0725036
0.0725178
0.0725315
0.0725449
0.0725578
0.0725705
0.0725827
0.0725946
0.0726063
0.0726176
0.0726287
0.0726395
0.07265
0.0726603
0.0726704
0.0726802
0.0726899
0.0726993
0.0727086
0.0727177
0.0727266
0.0727353
0.0727439
0.0727523
0.0727606
0.0727687
0.0727767
0.0727846
0.0727923
0.0727999
0.0728074
0.0728148
0.0728221
0.0728293
0.0728363
0.0728433
0.0728501
0.0728569
0.0728636
0.0728702
0.0728767
0.0728831
0.0728895
0.0728957
0.0729019
0.072908
0.0729141
0.07292
0.0729259
0.0729318
0.0729375
0.0729432
0.0729489
0.0729544
0.07296
0.0729654
0.0729708
0.0729762
0.0729815
0.0729867
0.0729919
0.072997
0.0730021
0.0730071
0.0730121
0.0730171
0.073022
0.0730268
0.0730316
0.0730364
0.0730411
0.0730458
0.0730504
0.073055
0.0730595
0.073064
0.0730685
0.0730729
0.0730773
0.0730817
0.073086
0.0730903
0.0730946
0.0730988
0.0731029
0.0731071
0.0731112
0.0731153
0.0731193
0.0731233
0.0731273
0.0731313
0.0731352
0.0731391
0.0731429
0.0731468
0.0731506
0.0731543
0.0731581
0.0731618
0.0731655
0.0731691
0.0731727
0.0731763
0.0731799
0.0731835
0.073187
0.0731905
0.0731939
0.0731973
0.0732008
0.0732041
0.0732075
0.0732108
0.0732141
0.0732174
0.0732207
0.0732239
0.0732271
0.0732303
0.0732334
0.0732366
0.0732397
0.0732427
0.0732458
0.0732488
0.0732518
0.0732548
0.0732578
0.0732607
0.0732636
0.0732665
0.0732694
0.0732722
0.073275
0.0732778
0.0732806
0.0732833
0.073286
0.0732887
0.0732914
0.0732941
0.0732967
0.0732993
0.0733019
0.0733044
0.073307
0.0733095
0.073312
0.0733144
0.0733169
0.0733193
0.0733217
0.073324
0.0733264
0.0733287
0.073331
0.0733332
0.0733355
0.0733377
0.0733399
0.0733421
0.0733442
0.0733463
0.0733484
0.0733505
0.0733525
0.0733545
0.0733565
0.0733584
0.0733604
0.0733622
0.0733641
0.073366
0.0733678
0.0733696
0.0733713
0.073373
0.0733747
0.0733764
0.073378
0.0733796
0.0733812
0.0733827
0.0733842
0.0733857
0.0733872
0.0733886
0.07339
0.0733913
0.0733926
0.0733939
0.0733952
0.0733964
0.0733976
0.0733988
0.0733999
0.073401
0.0734021
0.0734031
0.0734041
0.0734051
0.0734061
0.073407
0.0734079
0.0734088
0.0734097
0.0734105
0.0734113
0.0734121
0.0734128
0.0734136
0.0734143
0.073415
0.0734157
0.0734164
0.073417
0.0734177
0.0734183
0.073419
0.0734196
0.0734202
0.0734208
0.0734215
0.0734221
0.0734227
0.0734233
0.0734239
0.0734246
0.0734252
0.0734259
0.0734266
0.0734273
0.073428
0.0734287
0.0734294
0.0734302
0.073431
0.0734318
0.0734327
0.0734336
0.0734345
0.0734354
0.0734364
0.0734374
0.0734384
0.0734395
0.0734406
0.0734418
0.0734429
0.0734442
0.0734454
0.0734467
0.0734481
0.0734494
0.0734508
0.0734523
0.0734538
0.0734553
0.0734568
0.0734584
0.0734599
0.0734616
0.0734632
0.0734648
0.0734665
0.0734682
0.0734699
0.0734715
0.0734732
0.0734749
0.0734766
0.0734782
0.0734798
0.0734814
0.0734829
0.0734844
0.0734858
0.0734872
0.0734885
0.0734897
0.0734908
0.0734918
0.0734927
0.0734934
0.073494
0.0734945
0.0734947
0.0734948
0.0734947
0.0734944
0.0734938
0.073493
0.0734919
0.0734905
0.0734887
0.0734867
0.0734843
0.0734815
0.0734783
0.0734746
0.0734705
0.0734659
0.0734608
0.0734551
0.0734489
0.073442
0.0734345
0.0734264
0.0734175
0.0734079
0.0733975
0.0733863
0.0733742
0.0733613
0.0733474
0.0733325
0.0733167
0.0732997
0.0732817
0.0732626
0.0732422
0.0732206
0.0731978
0.0731737
0.0731482
0.0731213
0.0730929
0.0730631
0.0730318
0.0729989
0.0729644
0.0729285
0.0728914
0.0728547
0.0728227
0.0728071
0.0613427
0.0615007
0.0616908
0.0619183
0.0621878
0.0625019
0.0628597
0.0632567
0.063686
0.0641389
0.0646062
0.0650788
0.0655486
0.0660086
0.0664531
0.0668782
0.0672811
0.0676602
0.0680149
0.0683451
0.0686515
0.0689352
0.0691971
0.0694389
0.0696617
0.0698671
0.0700565
0.0702311
0.0703922
0.070541
0.0706786
0.0708059
0.0709238
0.0710332
0.0711348
0.0712294
0.0713174
0.0713996
0.0714763
0.0715481
0.0716153
0.0716783
0.0717375
0.0717932
0.0718457
0.0718952
0.0719419
0.071986
0.0720278
0.0720675
0.0721051
0.0721408
0.0721747
0.0722071
0.0722379
0.0722673
0.0722954
0.0723223
0.072348
0.0723727
0.0723963
0.072419
0.0724408
0.0724618
0.0724819
0.0725014
0.0725201
0.0725382
0.0725556
0.0725725
0.0725888
0.0726046
0.0726198
0.0726346
0.072649
0.0726629
0.0726764
0.0726896
0.0727024
0.0727148
0.0727269
0.0727386
0.0727501
0.0727613
0.0727722
0.0727829
0.0727932
0.0728034
0.0728133
0.072823
0.0728325
0.0728418
0.0728508
0.0728597
0.0728684
0.072877
0.0728853
0.0728935
0.0729016
0.0729095
0.0729172
0.0729249
0.0729323
0.0729397
0.0729469
0.072954
0.072961
0.0729679
0.0729746
0.0729813
0.0729878
0.0729943
0.0730006
0.0730069
0.073013
0.0730191
0.0730251
0.073031
0.0730368
0.0730426
0.0730483
0.0730538
0.0730594
0.0730648
0.0730702
0.0730755
0.0730807
0.0730859
0.073091
0.0730961
0.0731011
0.073106
0.0731109
0.0731157
0.0731205
0.0731252
0.0731299
0.0731345
0.0731391
0.0731436
0.0731481
0.0731525
0.0731568