/*--------------------------------*- C++ -*----------------------------------*\
| =========                 |                                                 |
| \\      /  F ield         | OpenFOAM: The Open Source CFD Toolbox           |
|  \\    /   O peration     | Version:  2506                                  |
|   \\  /    A nd           | Website:  www.openfoam.com                      |
|    \\/     M anipulation  |                                                 |
\*---------------------------------------------------------------------------*/
FoamFile
{
    version     2.0;
    format      ascii;
    arch        "LSB;label=32;scalar=64";
    class       volScalarField;
    location    "500";
    object      p;
}
// * * * * * * * * * * * * * * * * * * * * * * * * * * * * * * * * * * * * * //

dimensions      [0 2 -2 0 0 0 0];

internalField   nonuniform List<scalar> 
131949
(
-32.7106
-25.1022
-21.4237
-20.0534
-18.8256
-17.6803
-16.7713
-16.0224
-15.3636
-14.7764
-14.2507
-13.7748
-13.3396
-12.9387
-12.5673
-12.2214
-11.8977
-11.5936
-11.3069
-11.0357
-10.7784
-10.5338
-10.3006
-10.0779
-9.86478
-9.66046
-9.46426
-9.27559
-9.09391
-8.91873
-8.74962
-8.58618
-8.42808
-8.27497
-8.12657
-7.98261
-7.84285
-7.70706
-7.57503
-7.44657
-7.32151
-7.19968
-7.08092
-6.96511
-6.8521
-6.74178
-6.63402
-6.52873
-6.4258
-6.32513
-6.22664
-6.13025
-6.03587
-5.94343
-5.85287
-5.76411
-5.67709
-5.59176
-5.50806
-5.42592
-5.34532
-5.26618
-5.18848
-5.11216
-5.03719
-4.96353
-4.89112
-4.81996
-4.74998
-4.68117
-4.61349
-4.54692
-4.48141
-4.41696
-4.35352
-4.29107
-4.22959
-4.16906
-4.10944
-4.05073
-3.9929
-3.93592
-3.87979
-3.82448
-3.76997
-3.71624
-3.66328
-3.61108
-3.55961
-3.50887
-3.45883
-3.40949
-3.36082
-3.31282
-3.26548
-3.21877
-3.17269
-3.12724
-3.08238
-3.03813
-2.99446
-2.95136
-2.90883
-2.86685
-2.82542
-2.78452
-2.74416
-2.70431
-2.66497
-2.62614
-2.5878
-2.54995
-2.51258
-2.47568
-2.43925
-2.40328
-2.36776
-2.33268
-2.29804
-2.26384
-2.23007
-2.19671
-2.16377
-2.13125
-2.09912
-2.0674
-2.03607
-2.00513
-1.97457
-1.94439
-1.91459
-1.88516
-1.85609
-1.82739
-1.79904
-1.77104
-1.74339
-1.71609
-1.68913
-1.6625
-1.63621
-1.61024
-1.5846
-1.55929
-1.53429
-1.5096
-1.48523
-1.46116
-1.4374
-1.41394
-1.39078
-1.36792
-1.34534
-1.32306
-1.30106
-1.27935
-1.25791
-1.23675
-1.21587
-1.19526
-1.17491
-1.15484
-1.13502
-1.11547
-1.09618
-1.07714
-1.05835
-1.03982
-1.02153
-1.00349
-0.985691
-0.968134
-0.950814
-0.93373
-0.916879
-0.90026
-0.883869
-0.867704
-0.851764
-0.836045
-0.820546
-0.805264
-0.790197
-0.775342
-0.760698
-0.746263
-0.732034
-0.718008
-0.704185
-0.690561
-0.677135
-0.663904
-0.650867
-0.638021
-0.625364
-0.612894
-0.600609
-0.588508
-0.576587
-0.564845
-0.553281
-0.541891
-0.530675
-0.519629
-0.508753
-0.498044
-0.4875
-0.477119
-0.4669
-0.456841
-0.446939
-0.437193
-0.427601
-0.418162
-0.408873
-0.399732
-0.390738
-0.381889
-0.373184
-0.36462
-0.356196
-0.34791
-0.33976
-0.331745
-0.323864
-0.316113
-0.308493
-0.301
-0.293634
-0.286394
-0.279276
-0.272281
-0.265405
-0.258649
-0.25201
-0.245486
-0.239077
-0.232781
-0.226596
-0.220521
-0.214555
-0.208695
-0.202942
-0.197293
-0.191747
-0.186303
-0.180959
-0.175714
-0.170567
-0.165516
-0.160561
-0.155699
-0.150931
-0.146254
-0.141667
-0.137169
-0.132759
-0.128436
-0.124198
-0.120045
-0.115976
-0.111988
-0.108082
-0.104255
-0.100508
-0.0968383
-0.0932454
-0.0897284
-0.0862861
-0.0829175
-0.0796215
-0.0763973
-0.0732438
-0.07016
-0.067145
-0.0641979
-0.0613175
-0.0585032
-0.0557538
-0.0530686
-0.0504465
-0.0478867
-0.0453884
-0.0429506
-0.0405725
-0.0382532
-0.0359919
-0.0337877
-0.0316399
-0.0295476
-0.0275099
-0.0255261
-0.0235954
-0.0217171
-0.0198903
-0.0181142
-0.0163882
-0.0147115
-0.0130833
-0.0115029
-0.00996951
-0.00848257
-0.00704124
-0.00564491
-0.00429281
-0.00298435
-0.00171876
-0.000495453
0.000686299
0.00182707
0.00292758
0.00398839
0.0050102
0.00599354
0.00693913
0.00784747
0.00871925
0.00955497
0.0103553
0.0111207
0.0118519
0.0125493
0.0132136
0.0138452
0.0144447
0.0150127
0.0155496
0.0160561
0.0165325
0.0169795
0.0173974
0.0177869
0.0181484
0.0184823
0.0187893
0.0190696
0.0193239
0.0195525
0.019756
0.0199347
0.0200891
0.0202197
0.0203269
0.0204111
0.0204728
0.0205124
0.0205303
0.0205269
0.0205027
0.020458
0.0203934
0.0203091
0.0202056
0.0200832
0.0199425
0.0197838
0.0196075
0.0194139
0.0192036
0.0189768
0.018734
0.0184756
0.018202
0.0179136
0.0176108
0.0172939
0.0169636
0.0166199
0.0162636
0.0158948
0.0155141
0.0151219
0.0147187
0.0143047
0.0138806
0.0134467
0.0130036
0.0125517
0.0120914
0.0116233
0.011148
0.0106658
0.0101774
0.00968333
0.00918425
0.00868066
0.00817336
0.00766289
0.00715017
0.00663585
0.006121
0.00560651
0.00509364
0.00458385
0.00407765
0.00358219
0.00307567
0.00266982
0.00186879
0.00339597
-25.162
-22.5971
-20.6317
-19.4778
-18.4388
-17.4549
-16.6192
-15.9073
-15.2758
-14.7081
-14.1956
-13.7293
-13.3015
-12.9063
-12.5394
-12.1971
-11.8764
-11.5747
-11.29
-11.0205
-10.7648
-10.5214
-10.2893
-10.0676
-9.8553
-9.65171
-9.45618
-9.26809
-9.08693
-8.91222
-8.74353
-8.58048
-8.42272
-8.26993
-8.12182
-7.97812
-7.8386
-7.70303
-7.57121
-7.44294
-7.31806
-7.19639
-7.07779
-6.96212
-6.84924
-6.73904
-6.6314
-6.52621
-6.42338
-6.32281
-6.22441
-6.1281
-6.0338
-5.94144
-5.85095
-5.76226
-5.6753
-5.59003
-5.50638
-5.4243
-5.34375
-5.26466
-5.18701
-5.11074
-5.03581
-4.96218
-4.88982
-4.81868
-4.74875
-4.67997
-4.61232
-4.54578
-4.48031
-4.41587
-4.35246
-4.29004
-4.22859
-4.16808
-4.10849
-4.0498
-3.99199
-3.93503
-3.87892
-3.82362
-3.76913
-3.71542
-3.66249
-3.6103
-3.55885
-3.50812
-3.4581
-3.40876
-3.36011
-3.31213
-3.26479
-3.2181
-3.17204
-3.12659
-3.08175
-3.03751
-2.99385
-2.95076
-2.90824
-2.86627
-2.82485
-2.78396
-2.74361
-2.70377
-2.66444
-2.62561
-2.58728
-2.54944
-2.51208
-2.47519
-2.43876
-2.4028
-2.36728
-2.33221
-2.29758
-2.26339
-2.22962
-2.19627
-2.16334
-2.13082
-2.0987
-2.06698
-2.03566
-2.00472
-1.97417
-1.944
-1.9142
-1.88477
-1.85571
-1.82701
-1.79866
-1.77067
-1.74303
-1.71573
-1.68877
-1.66215
-1.63586
-1.6099
-1.58426
-1.55895
-1.53395
-1.50927
-1.4849
-1.46084
-1.43708
-1.41363
-1.39047
-1.36761
-1.34504
-1.32276
-1.30076
-1.27905
-1.25762
-1.23646
-1.21558
-1.19497
-1.17463
-1.15456
-1.13475
-1.1152
-1.09591
-1.07687
-1.05809
-1.03956
-1.02127
-1.00323
-0.985437
-0.967882
-0.950565
-0.933484
-0.916636
-0.900019
-0.88363
-0.867468
-0.85153
-0.835814
-0.820317
-0.805037
-0.789973
-0.775121
-0.760479
-0.746046
-0.731819
-0.717796
-0.703975
-0.690354
-0.67693
-0.663701
-0.650666
-0.637822
-0.625167
-0.6127
-0.600417
-0.588318
-0.576399
-0.56466
-0.553097
-0.54171
-0.530495
-0.519452
-0.508578
-0.497871
-0.487329
-0.47695
-0.466733
-0.456676
-0.446776
-0.437032
-0.427443
-0.418005
-0.408718
-0.399579
-0.390587
-0.38174
-0.373037
-0.364475
-0.356052
-0.347768
-0.33962
-0.331607
-0.323727
-0.315979
-0.30836
-0.300869
-0.293505
-0.286266
-0.27915
-0.272156
-0.265283
-0.258528
-0.25189
-0.245368
-0.238961
-0.232666
-0.226483
-0.220409
-0.214445
-0.208587
-0.202835
-0.197187
-0.191643
-0.1862
-0.180857
-0.175614
-0.170468
-0.165419
-0.160465
-0.155605
-0.150838
-0.146162
-0.141576
-0.13708
-0.132671
-0.128349
-0.124113
-0.119961
-0.115893
-0.111906
-0.108001
-0.104176
-0.10043
-0.0967612
-0.0931695
-0.0896536
-0.0862124
-0.0828449
-0.0795501
-0.076327
-0.0731745
-0.0700918
-0.0670779
-0.0641317
-0.0612525
-0.0584391
-0.0556908
-0.0530065
-0.0503855
-0.0478267
-0.0453294
-0.0428926
-0.0405154
-0.0381971
-0.0359368
-0.0337335
-0.0315867
-0.0294952
-0.0274585
-0.0254756
-0.0235459
-0.0216684
-0.0198426
-0.0180674
-0.0163423
-0.0146664
-0.0130391
-0.0114595
-0.0099271
-0.00844098
-0.00700055
-0.00560504
-0.00425383
-0.00294617
-0.00168146
-0.000458947
0.000721936
0.00186192
0.00296158
0.00402161
0.00504257
0.00602516
0.00696991
0.0078775
0.00874845
0.00958343
0.0103829
0.0111476
0.011878
0.0125747
0.0132382
0.0138691
0.0144679
0.0150351
0.0155713
0.0160771
0.0165528
0.0169991
0.0174163
0.0178051
0.0181659
0.0184992
0.0188055
0.0190852
0.0193388
0.0195668
0.0197696
0.0199478
0.0201016
0.0202316
0.0203382
0.0204219
0.0204831
0.0205222
0.0205395
0.0205357
0.020511
0.0204659
0.0204007
0.020316
0.0202121
0.0200894
0.0199483
0.0197892
0.0196126
0.0194187
0.0192081
0.0189811
0.0187381
0.0184795
0.0182057
0.0179172
0.0176142
0.0172973
0.0169668
0.0166232
0.0162668
0.0158981
0.0155175
0.0151254
0.0147223
0.0143086
0.0138846
0.013451
0.0130081
0.0125566
0.0120966
0.0116289
0.0111539
0.0106722
0.0101842
0.00969071
0.00919206
0.00868905
0.00818219
0.00767231
0.00716
0.0066462
0.00613163
0.00561744
0.00510457
0.00459454
0.00408788
0.00359026
0.00308592
0.00265674
0.0019507
0.00318103
-21.9518
-21.1511
-19.9126
-18.8642
-17.9682
-17.1347
-16.3857
-15.7245
-15.131
-14.5918
-14.1001
-13.6495
-13.2338
-12.8483
-12.4891
-12.1531
-11.8375
-11.5402
-11.2591
-10.9928
-10.7396
-10.4986
-10.2685
-10.0485
-9.83771
-9.63548
-9.44115
-9.25414
-9.07394
-8.90009
-8.73218
-8.56984
-8.41272
-8.26052
-8.11294
-7.96974
-7.83067
-7.69551
-7.56407
-7.43616
-7.3116
-7.19023
-7.07192
-6.95651
-6.84388
-6.73391
-6.62648
-6.5215
-6.41885
-6.31846
-6.22023
-6.12407
-6.02992
-5.9377
-5.84734
-5.75877
-5.67194
-5.58678
-5.50324
-5.42126
-5.3408
-5.26181
-5.18424
-5.10805
-5.0332
-4.95965
-4.88736
-4.81629
-4.74642
-4.67771
-4.61012
-4.54363
-4.47822
-4.41384
-4.35048
-4.2881
-4.2267
-4.16623
-4.10669
-4.04804
-3.99027
-3.93335
-3.87728
-3.82202
-3.76756
-3.71389
-3.66098
-3.60882
-3.5574
-3.5067
-3.45671
-3.4074
-3.35878
-3.31082
-3.26351
-3.21684
-3.1708
-3.12538
-3.08056
-3.03634
-2.9927
-2.94963
-2.90713
-2.86518
-2.82377
-2.78291
-2.74256
-2.70274
-2.66343
-2.62462
-2.58631
-2.54848
-2.51113
-2.47425
-2.43784
-2.40189
-2.36639
-2.33133
-2.29671
-2.26253
-2.22877
-2.19544
-2.16252
-2.13
-2.0979
-2.06619
-2.03487
-2.00395
-1.97341
-1.94324
-1.91346
-1.88404
-1.85498
-1.82629
-1.79796
-1.76997
-1.74234
-1.71505
-1.68809
-1.66148
-1.6352
-1.60924
-1.58362
-1.55831
-1.53332
-1.50865
-1.48428
-1.46023
-1.43648
-1.41303
-1.38988
-1.36702
-1.34446
-1.32218
-1.30019
-1.27849
-1.25706
-1.23591
-1.21504
-1.19443
-1.1741
-1.15403
-1.13422
-1.11468
-1.09539
-1.07636
-1.05759
-1.03906
-1.02078
-1.00275
-0.984955
-0.967404
-0.950092
-0.933016
-0.916172
-0.89956
-0.883176
-0.867019
-0.851086
-0.835374
-0.819882
-0.804607
-0.789546
-0.774699
-0.760062
-0.745633
-0.731411
-0.717392
-0.703575
-0.689958
-0.676539
-0.663315
-0.650284
-0.637444
-0.624794
-0.61233
-0.600052
-0.587956
-0.576042
-0.564307
-0.552748
-0.541365
-0.530154
-0.519115
-0.508245
-0.497541
-0.487004
-0.476629
-0.466416
-0.456362
-0.446466
-0.436726
-0.42714
-0.417706
-0.408423
-0.399288
-0.390299
-0.381456
-0.372756
-0.364197
-0.355779
-0.347498
-0.339354
-0.331344
-0.323467
-0.315722
-0.308107
-0.300619
-0.293259
-0.286023
-0.27891
-0.271919
-0.265049
-0.258297
-0.251663
-0.245144
-0.238739
-0.232448
-0.226267
-0.220197
-0.214235
-0.20838
-0.202631
-0.196986
-0.191444
-0.186004
-0.180664
-0.175423
-0.17028
-0.165234
-0.160282
-0.155425
-0.15066
-0.145987
-0.141404
-0.13691
-0.132503
-0.128184
-0.12395
-0.119801
-0.115734
-0.11175
-0.107847
-0.104024
-0.10028
-0.096614
-0.0930245
-0.0895107
-0.0860716
-0.0827062
-0.0794135
-0.0761924
-0.073042
-0.0699613
-0.0669493
-0.0640052
-0.0611278
-0.0583164
-0.05557
-0.0528876
-0.0502684
-0.0477115
-0.045216
-0.042781
-0.0404057
-0.0380891
-0.0358305
-0.0336291
-0.0314839
-0.0293942
-0.0273592
-0.025378
-0.0234499
-0.0215741
-0.0197498
-0.0179763
-0.0162528
-0.0145785
-0.0129528
-0.0113748
-0.00984388
-0.00835932
-0.00692038
-0.0055264
-0.00417666
-0.0028705
-0.00160723
-0.000386194
0.000793275
0.00193181
0.00303008
0.00408868
0.00510828
0.00608947
0.00703288
0.0079391
0.00880874
0.00964237
0.0104406
0.011204
0.0119331
0.0126285
0.0132907
0.0139203
0.0145179
0.0150839
0.0156189
0.0161235
0.016598
0.0170431
0.0174592
0.0178469
0.0182065
0.0185387
0.0188439
0.0191225
0.0193751
0.019602
0.0198038
0.0199808
0.0201337
0.0202627
0.0203683
0.020451
0.0205112
0.0205493
0.0205658
0.020561
0.0205354
0.0204894
0.0204235
0.0203379
0.0202331
0.0201096
0.0199677
0.0198079
0.0196305
0.0194359
0.0192246
0.0189968
0.0187532
0.0184939
0.0182195
0.0179304
0.0176268
0.0173094
0.0169783
0.0166342
0.0162773
0.0159081
0.015527
0.0151345
0.0147309
0.0143168
0.0138925
0.0134585
0.0130153
0.0125634
0.0121031
0.0116351
0.0111599
0.0106778
0.0101896
0.00969574
0.00919681
0.00869342
0.00818622
0.00767585
0.00716303
0.00664851
0.00613311
0.00561776
0.00510346
0.00459137
0.00408201
0.00358021
0.00307116
0.00262791
0.00192392
0.00305944
-20.0756
-19.7121
-18.9253
-18.1203
-17.399
-16.7123
-16.0647
-15.4713
-14.9277
-14.4265
-13.9633
-13.5345
-13.1359
-12.764
-12.4158
-12.0887
-11.7806
-11.4895
-11.2137
-10.9518
-10.7025
-10.4647
-10.2376
-10.0201
-9.81159
-9.61134
-9.41878
-9.23334
-9.05456
-8.88199
-8.71524
-8.55394
-8.39777
-8.24643
-8.09965
-7.95717
-7.81877
-7.68423
-7.55336
-7.42597
-7.3019
-7.18099
-7.0631
-6.94808
-6.83582
-6.72619
-6.61908
-6.5144
-6.41204
-6.31191
-6.21393
-6.11801
-6.02408
-5.93207
-5.8419
-5.75352
-5.66687
-5.58187
-5.49849
-5.41667
-5.33635
-5.2575
-5.18006
-5.10399
-5.02926
-4.95582
-4.88364
-4.81268
-4.74291
-4.67429
-4.6068
-4.5404
-4.47506
-4.41076
-4.34748
-4.28518
-4.22384
-4.16345
-4.10397
-4.04538
-3.98767
-3.93081
-3.87479
-3.81959
-3.76518
-3.71156
-3.6587
-3.60659
-3.55522
-3.50456
-3.45461
-3.40535
-3.35676
-3.30884
-3.26157
-3.21494
-3.16893
-3.12354
-3.07876
-3.03456
-2.99095
-2.94792
-2.90544
-2.86352
-2.82215
-2.7813
-2.74099
-2.70119
-2.66191
-2.62312
-2.58483
-2.54702
-2.50969
-2.47284
-2.43645
-2.40052
-2.36503
-2.33
-2.2954
-2.26123
-2.22749
-2.19417
-2.16127
-2.12877
-2.09668
-2.06499
-2.03369
-2.00278
-1.97225
-1.9421
-1.91233
-1.88293
-1.85389
-1.82521
-1.79688
-1.76891
-1.74129
-1.71401
-1.68707
-1.66047
-1.6342
-1.60825
-1.58264
-1.55734
-1.53236
-1.5077
-1.48335
-1.4593
-1.43556
-1.41212
-1.38898
-1.36613
-1.34358
-1.32131
-1.29933
-1.27763
-1.25622
-1.23508
-1.21421
-1.19361
-1.17329
-1.15323
-1.13343
-1.11389
-1.09462
-1.07559
-1.05682
-1.0383
-1.02003
-1.00201
-0.984223
-0.966681
-0.949376
-0.932306
-0.91547
-0.898865
-0.882489
-0.866339
-0.850412
-0.834708
-0.819222
-0.803954
-0.788901
-0.77406
-0.75943
-0.745008
-0.730792
-0.71678
-0.70297
-0.689359
-0.675946
-0.662729
-0.649704
-0.636871
-0.624227
-0.61177
-0.599498
-0.587409
-0.575501
-0.563771
-0.552219
-0.540842
-0.529637
-0.518604
-0.50774
-0.497042
-0.48651
-0.476142
-0.465934
-0.455887
-0.445996
-0.436262
-0.426682
-0.417253
-0.407975
-0.398846
-0.389863
-0.381025
-0.37233
-0.363777
-0.355364
-0.347088
-0.338949
-0.330945
-0.323073
-0.315333
-0.307723
-0.30024
-0.292884
-0.285653
-0.278546
-0.27156
-0.264694
-0.257947
-0.251317
-0.244803
-0.238403
-0.232116
-0.22594
-0.219874
-0.213916
-0.208066
-0.202321
-0.19668
-0.191142
-0.185706
-0.180371
-0.175134
-0.169995
-0.164952
-0.160005
-0.155151
-0.15039
-0.14572
-0.141141
-0.136651
-0.132248
-0.127932
-0.123702
-0.119556
-0.115493
-0.111513
-0.107613
-0.103793
-0.100053
-0.0963897
-0.0928035
-0.0892929
-0.085857
-0.0824947
-0.0792051
-0.0759871
-0.0728397
-0.069762
-0.066753
-0.0638118
-0.0609374
-0.0581289
-0.0553853
-0.0527057
-0.0500894
-0.0475352
-0.0450424
-0.0426101
-0.0402374
-0.0379235
-0.0356676
-0.0334687
-0.0313261
-0.0292389
-0.0272064
-0.0252277
-0.0233021
-0.0214287
-0.0196069
-0.0178357
-0.0161146
-0.0144426
-0.0128192
-0.0112435
-0.00971487
-0.00823254
-0.00679584
-0.00540405
-0.00405649
-0.00275247
-0.00149134
-0.000272407
0.000904965
0.00204144
0.00313766
0.00419425
0.00521184
0.00619105
0.00713249
0.00803678
0.00890449
0.00973623
0.0105326
0.0112941
0.0120213
0.0127149
0.0133754
0.0140032
0.014599
0.0151633
0.0156966
0.0161994
0.0166722
0.0171156
0.0175301
0.0179161
0.0182742
0.0186048
0.0189083
0.0191854
0.0194364
0.0196618
0.0198621
0.0200377
0.020189
0.0203165
0.0204207
0.020502
0.0205608
0.0205975
0.0206126
0.0206065
0.0205795
0.0205322
0.0204649
0.020378
0.020272
0.0201472
0.0200041
0.019843
0.0196643
0.0194685
0.019256
0.0190271
0.0187823
0.0185219
0.0182463
0.017956
0.0176514
0.0173328
0.0170007
0.0166554
0.0162974
0.0159272
0.0155451
0.0151515
0.0147469
0.0143317
0.0139064
0.0134714
0.0130272
0.0125742
0.0121129
0.0116439
0.0111675
0.0106844
0.0101951
0.00970006
0.0091999
0.00869524
0.00818665
0.00767481
0.00716034
0.00664398
0.00612646
0.00560866
0.00509141
0.00457572
0.00406191
0.00355404
0.00303829
0.00258166
0.00187362
0.0029336
-18.6763
-18.4799
-17.9902
-17.4025
-16.825
-16.2561
-15.7018
-15.1771
-14.6858
-14.2256
-13.7946
-13.3911
-13.0127
-12.6572
-12.3224
-12.0064
-11.7076
-11.4242
-11.155
-10.8988
-10.6544
-10.4209
-10.1975
-9.98324
-9.77759
-9.5799
-9.3896
-9.2062
-9.02925
-8.85832
-8.69306
-8.53312
-8.37818
-8.22796
-8.08221
-7.94068
-7.80315
-7.66941
-7.53928
-7.41258
-7.28914
-7.16882
-7.05148
-6.93697
-6.82519
-6.71601
-6.60932
-6.50503
-6.40304
-6.30326
-6.2056
-6.10999
-6.01636
-5.92462
-5.83472
-5.74658
-5.66016
-5.57539
-5.49222
-5.41059
-5.33047
-5.25179
-5.17452
-5.09862
-5.02405
-4.95076
-4.87872
-4.8079
-4.73825
-4.66976
-4.60239
-4.5361
-4.47087
-4.40668
-4.3435
-4.2813
-4.22006
-4.15975
-4.10035
-4.04185
-3.98422
-3.92744
-3.8715
-3.81636
-3.76203
-3.70847
-3.65568
-3.60363
-3.55232
-3.50172
-3.45182
-3.40261
-3.35408
-3.30621
-3.25899
-3.2124
-3.16644
-3.1211
-3.07636
-3.03221
-2.98864
-2.94564
-2.9032
-2.86132
-2.81998
-2.77917
-2.73889
-2.69913
-2.65987
-2.62112
-2.58286
-2.54508
-2.50778
-2.47096
-2.43459
-2.39869
-2.36323
-2.32822
-2.29365
-2.2595
-2.22579
-2.19249
-2.15961
-2.12714
-2.09507
-2.06339
-2.03212
-2.00122
-1.97072
-1.94059
-1.91083
-1.88144
-1.85242
-1.82376
-1.79545
-1.7675
-1.73989
-1.71263
-1.68571
-1.65912
-1.63286
-1.60694
-1.58133
-1.55605
-1.53109
-1.50644
-1.4821
-1.45807
-1.43434
-1.41091
-1.38778
-1.36495
-1.34241
-1.32015
-1.29818
-1.2765
-1.25509
-1.23396
-1.21311
-1.19252
-1.17221
-1.15216
-1.13237
-1.11285
-1.09358
-1.07457
-1.05581
-1.0373
-1.01904
-1.00102
-0.983248
-0.965715
-0.94842
-0.931361
-0.914534
-0.897939
-0.881572
-0.865431
-0.849514
-0.833819
-0.818342
-0.803083
-0.788039
-0.773208
-0.758587
-0.744174
-0.729967
-0.715964
-0.702162
-0.68856
-0.675156
-0.661947
-0.648931
-0.636106
-0.623471
-0.611022
-0.598758
-0.586678
-0.574778
-0.563057
-0.551513
-0.540143
-0.528947
-0.517922
-0.507065
-0.496376
-0.485852
-0.475491
-0.465292
-0.455252
-0.445369
-0.435642
-0.426069
-0.416649
-0.407378
-0.398256
-0.38928
-0.38045
-0.371762
-0.363216
-0.35481
-0.346541
-0.338409
-0.330412
-0.322547
-0.314814
-0.30721
-0.299734
-0.292385
-0.28516
-0.278059
-0.271079
-0.26422
-0.257479
-0.250856
-0.244347
-0.237954
-0.231672
-0.225502
-0.219442
-0.21349
-0.207645
-0.201906
-0.196271
-0.190739
-0.185309
-0.179978
-0.174747
-0.169613
-0.164576
-0.159634
-0.154785
-0.150029
-0.145364
-0.14079
-0.136305
-0.131907
-0.127596
-0.12337
-0.119229
-0.115171
-0.111195
-0.1073
-0.103485
-0.0997484
-0.0960898
-0.0925078
-0.0890015
-0.0855699
-0.0822118
-0.0789263
-0.0757124
-0.072569
-0.0694954
-0.0664903
-0.063553
-0.0606825
-0.0578778
-0.055138
-0.0524622
-0.0498495
-0.047299
-0.0448098
-0.0423811
-0.040012
-0.0377016
-0.0354491
-0.0332537
-0.0311144
-0.0290306
-0.0270015
-0.0250261
-0.0231037
-0.0212335
-0.0194149
-0.0176469
-0.0159288
-0.01426
-0.0126396
-0.0110669
-0.00954125
-0.00806188
-0.00662809
-0.00523919
-0.00389449
-0.0025933
-0.00133496
-0.000118799
0.00105584
0.00218961
0.00328315
0.00433709
0.00535206
0.00632868
0.00726757
0.00816931
0.00903452
0.00986378
0.0106577
0.0114168
0.0121416
0.0128328
0.0134909
0.0141164
0.0147099
0.015272
0.015803
0.0163036
0.0167743
0.0172155
0.0176278
0.0180117
0.0183677
0.0186962
0.0189977
0.0192727
0.0195217
0.0197451
0.0199434
0.020117
0.0202665
0.0203921
0.0204944
0.0205738
0.0206307
0.0206656
0.0206789
0.0206709
0.0206422
0.0205931
0.0205241
0.0204355
0.0203277
0.0202012
0.0200564
0.0198936
0.0197133
0.0195159
0.0193017
0.0190711
0.0188247
0.0185627
0.0182855
0.0179936
0.0176874
0.0173672
0.0170335
0.0166867
0.0163272
0.0159553
0.0155716
0.0151765
0.0147703
0.0143536
0.0139266
0.01349
0.0130442
0.0125896
0.0121266
0.0116559
0.0111778
0.010693
0.0102018
0.00970486
0.00920274
0.00869599
0.00818521
0.007671
0.00715398
0.00663481
0.00611418
0.00559283
0.00507151
0.00455103
0.0040315
0.00351666
0.00299271
0.00252304
0.00181178
0.00278988
-17.5869
-17.4709
-17.1493
-16.7151
-16.2539
-15.784
-15.3135
-14.855
-14.4157
-13.9974
-13.6002
-13.224
-12.868
-12.5308
-12.2112
-11.908
-11.6198
-11.3456
-11.0842
-10.8347
-10.5961
-10.3676
-10.1486
-9.93829
-9.73609
-9.54147
-9.35391
-9.17297
-8.99823
-8.8293
-8.66585
-8.50755
-8.35411
-8.20526
-8.06076
-7.92038
-7.78391
-7.65115
-7.52192
-7.39606
-7.2734
-7.15381
-7.03713
-6.92326
-6.81206
-6.70343
-6.59726
-6.49345
-6.39191
-6.29256
-6.1953
-6.10007
-6.00679
-5.91539
-5.82581
-5.73798
-5.65184
-5.56735
-5.48443
-5.40305
-5.32316
-5.24471
-5.16766
-5.09196
-5.01758
-4.94447
-4.87261
-4.80195
-4.73247
-4.66413
-4.59691
-4.53076
-4.46567
-4.40161
-4.33855
-4.27647
-4.21534
-4.15515
-4.09586
-4.03746
-3.97993
-3.92325
-3.86739
-3.81235
-3.7581
-3.70463
-3.65191
-3.59994
-3.5487
-3.49817
-3.44835
-3.39921
-3.35074
-3.30293
-3.25577
-3.20924
-3.16334
-3.11805
-3.07336
-3.02927
-2.98575
-2.9428
-2.90041
-2.85857
-2.81728
-2.77652
-2.73628
-2.69656
-2.65734
-2.61863
-2.5804
-2.54266
-2.5054
-2.46861
-2.43228
-2.39641
-2.36098
-2.326
-2.29146
-2.25735
-2.22366
-2.19039
-2.15754
-2.12509
-2.09305
-2.0614
-2.03015
-1.99928
-1.9688
-1.93869
-1.90896
-1.87959
-1.85059
-1.82195
-1.79367
-1.76573
-1.73815
-1.71091
-1.684
-1.65743
-1.6312
-1.60529
-1.5797
-1.55444
-1.52949
-1.50486
-1.48054
-1.45652
-1.43281
-1.4094
-1.38629
-1.36347
-1.34094
-1.3187
-1.29675
-1.27508
-1.25368
-1.23257
-1.21173
-1.19116
-1.17086
-1.15082
-1.13105
-1.11154
-1.09228
-1.07328
-1.05454
-1.03604
-1.01779
-0.999788
-0.982027
-0.964507
-0.947224
-0.930177
-0.913362
-0.896779
-0.880424
-0.864295
-0.848389
-0.832706
-0.817241
-0.801994
-0.786961
-0.772141
-0.757531
-0.743129
-0.728933
-0.714941
-0.701151
-0.68756
-0.674166
-0.660968
-0.647963
-0.635149
-0.622524
-0.610086
-0.597833
-0.585762
-0.573873
-0.562162
-0.550628
-0.539269
-0.528083
-0.517068
-0.506221
-0.495542
-0.485028
-0.474677
-0.464487
-0.454456
-0.444583
-0.434866
-0.425303
-0.415891
-0.40663
-0.397517
-0.388551
-0.379729
-0.371051
-0.362514
-0.354116
-0.345856
-0.337733
-0.329744
-0.321888
-0.314163
-0.306567
-0.2991
-0.291759
-0.284542
-0.277449
-0.270478
-0.263626
-0.256893
-0.250277
-0.243777
-0.23739
-0.231117
-0.224954
-0.218901
-0.212957
-0.207119
-0.201387
-0.195759
-0.190234
-0.18481
-0.179487
-0.174262
-0.169135
-0.164104
-0.159168
-0.154326
-0.149577
-0.144918
-0.14035
-0.135871
-0.131479
-0.127174
-0.122954
-0.118819
-0.114767
-0.110796
-0.106907
-0.103098
-0.0993667
-0.0957136
-0.092137
-0.0886361
-0.0852097
-0.0818568
-0.0785765
-0.0753677
-0.0722294
-0.0691608
-0.0661607
-0.0632283
-0.0603625
-0.0575626
-0.0548275
-0.0521564
-0.0495484
-0.0470024
-0.0445178
-0.0420936
-0.0397289
-0.0374228
-0.0351747
-0.0329835
-0.0308485
-0.0287689
-0.0267439
-0.0247726
-0.0228542
-0.0209881
-0.0191734
-0.0174093
-0.0156951
-0.0140301
-0.0124135
-0.0108446
-0.00932265
-0.00784694
-0.00641678
-0.00503147
-0.00369031
-0.00239263
-0.00113776
7.49799e-05
0.00124623
0.00237665
0.00346687
0.00451754
0.00552927
0.00650269
0.0074384
0.00833702
0.00919913
0.0100253
0.0108162
0.0115723
0.0122942
0.0129825
0.0136377
0.0142603
0.014851
0.0154102
0.0159385
0.0164364
0.0169043
0.0173429
0.0177526
0.0181338
0.0184872
0.0188131
0.0191121
0.0193846
0.0196311
0.0198521
0.020048
0.0202192
0.0203662
0.0204895
0.0205894
0.0206665
0.0207212
0.0207538
0.0207648
0.0207546
0.0207236
0.0206723
0.0206011
0.0205103
0.0204004
0.0202717
0.0201248
0.0199599
0.0197775
0.0195779
0.0193616
0.019129
0.0188805
0.0186164
0.0183371
0.0180432
0.0177349
0.0174126
0.0170769
0.016728
0.0163663
0.0159924
0.0156066
0.0152094
0.014801
0.0143821
0.0139531
0.0135143
0.0130662
0.0126093
0.0121441
0.011671
0.0111906
0.0107032
0.0102095
0.00970997
0.00920512
0.00869552
0.00818172
0.00766431
0.00714386
0.00662098
0.00609629
0.00557044
0.00504407
0.00451783
0.00399175
0.00346896
0.00293674
0.00245368
0.00174066
0.00263052
-16.6971
-16.62
-16.3949
-16.0685
-15.701
-15.3133
-14.9149
-14.5168
-14.1271
-13.7496
-13.3864
-13.0382
-12.7055
-12.3878
-12.0847
-11.7953
-11.519
-11.2549
-11.0022
-10.7602
-10.5282
-10.3055
-10.0915
-9.88569
-9.68747
-9.49639
-9.31201
-9.13392
-8.96174
-8.79513
-8.63378
-8.4774
-8.32571
-8.17846
-8.03543
-7.8964
-7.76117
-7.62956
-7.50139
-7.37651
-7.25476
-7.13602
-7.02013
-6.907
-6.79649
-6.6885
-6.58294
-6.4797
-6.3787
-6.27985
-6.18307
-6.08829
-5.99543
-5.90443
-5.81522
-5.72775
-5.64195
-5.55778
-5.47517
-5.39408
-5.31447
-5.23628
-5.15948
-5.08402
-5.00986
-4.93698
-4.86532
-4.79487
-4.72558
-4.65742
-4.59037
-4.52439
-4.45946
-4.39556
-4.33265
-4.27071
-4.20972
-4.14966
-4.0905
-4.03222
-3.97481
-3.91824
-3.86249
-3.80755
-3.7534
-3.70003
-3.64741
-3.59553
-3.54438
-3.49394
-3.44419
-3.39513
-3.34674
-3.29901
-3.25192
-3.20547
-3.15963
-3.11441
-3.06978
-3.02575
-2.98229
-2.9394
-2.89707
-2.85529
-2.81404
-2.77333
-2.73315
-2.69347
-2.65431
-2.61564
-2.57746
-2.53976
-2.50254
-2.46579
-2.4295
-2.39367
-2.35828
-2.32334
-2.28884
-2.25476
-2.22111
-2.18787
-2.15505
-2.12264
-2.09062
-2.05901
-2.02779
-1.99695
-1.96649
-1.93642
-1.90671
-1.87737
-1.8484
-1.81979
-1.79153
-1.76362
-1.73605
-1.70883
-1.68195
-1.65541
-1.62919
-1.60331
-1.57774
-1.5525
-1.52758
-1.50296
-1.47866
-1.45467
-1.43097
-1.40758
-1.38449
-1.36169
-1.33918
-1.31696
-1.29502
-1.27337
-1.25199
-1.2309
-1.21007
-1.18952
-1.16923
-1.14922
-1.12946
-1.10996
-1.09072
-1.07174
-1.05301
-1.03453
-1.01629
-0.998306
-0.98056
-0.963054
-0.945786
-0.928753
-0.911954
-0.895384
-0.879044
-0.862929
-0.847037
-0.831368
-0.815917
-0.800683
-0.785664
-0.770858
-0.756261
-0.741873
-0.72769
-0.713712
-0.699934
-0.686357
-0.672976
-0.659791
-0.646799
-0.633997
-0.621385
-0.60896
-0.596719
-0.584661
-0.572784
-0.561086
-0.549564
-0.538218
-0.527043
-0.51604
-0.505206
-0.494538
-0.484036
-0.473697
-0.463518
-0.4535
-0.443638
-0.433932
-0.42438
-0.41498
-0.40573
-0.396628
-0.387673
-0.378862
-0.370194
-0.361668
-0.353281
-0.345032
-0.336919
-0.32894
-0.321095
-0.31338
-0.305794
-0.298337
-0.291006
-0.283799
-0.276716
-0.269754
-0.262912
-0.256188
-0.249581
-0.24309
-0.236713
-0.230448
-0.224295
-0.218251
-0.212315
-0.206486
-0.200762
-0.195143
-0.189626
-0.18421
-0.178895
-0.173679
-0.168559
-0.163536
-0.158608
-0.153774
-0.149032
-0.144381
-0.13982
-0.135349
-0.130964
-0.126666
-0.122454
-0.118325
-0.11428
-0.110317
-0.106434
-0.102631
-0.0989071
-0.0952605
-0.0916905
-0.088196
-0.084776
-0.0814294
-0.0781553
-0.0749526
-0.0718204
-0.0687577
-0.0657636
-0.062837
-0.0599771
-0.0571829
-0.0544535
-0.051788
-0.0491855
-0.0466451
-0.0441659
-0.041747
-0.0393876
-0.0370868
-0.0348439
-0.0326578
-0.0305279
-0.0284533
-0.0264332
-0.0244669
-0.0225534
-0.020692
-0.0188821
-0.0171227
-0.0154132
-0.0137527
-0.0121407
-0.0105762
-0.00905873
-0.00758741
-0.00616158
-0.00478055
-0.00344363
-0.00215014
-0.000899413
0.000309225
0.00147643
0.00260284
0.00368911
0.00473586
0.00574373
0.00671333
0.00764526
0.00854014
0.00939856
0.0102211
0.0110084
0.0117609
0.0124793
0.0131641
0.0138158
0.0144351
0.0150224
0.0155783
0.0161033
0.0165979
0.0170626
0.017498
0.0179045
0.0182827
0.018633
0.0189559
0.0192518
0.0195214
0.0197649
0.0199829
0.0201759
0.0203442
0.0204884
0.0206089
0.0207061
0.0207804
0.0208323
0.0208621
0.0208704
0.0208576
0.020824
0.02077
0.0206961
0.0206027
0.0204902
0.020359
0.0202094
0.020042
0.019857
0.0196549
0.019436
0.0192009
0.0189498
0.0186832
0.0184014
0.0181049
0.017794
0.0174692
0.0171309
0.0167794
0.0164152
0.0160387
0.0156503
0.0152504
0.0148394
0.0144178
0.013986
0.0135444
0.0130936
0.0126338
0.0121657
0.0116897
0.0112062
0.0107157
0.0102188
0.0097159
0.0092076
0.0086944
0.00817683
0.00765543
0.00713075
0.00660335
0.00607377
0.0055426
0.00501038
0.00447763
0.00394426
0.00341325
0.00287215
0.0023761
0.00166298
0.00245825
-15.9422
-15.8865
-15.7209
-15.4704
-15.1753
-14.8542
-14.5163
-14.1713
-13.8271
-13.4884
-13.158
-12.8377
-12.5286
-12.231
-11.9449
-11.6702
-11.4064
-11.1532
-10.91
-10.6762
-10.4514
-10.2351
-10.0267
-9.82589
-9.63211
-9.44499
-9.26417
-9.08928
-8.92
-8.75601
-8.59705
-8.44283
-8.29312
-8.14769
-8.00633
-7.86883
-7.73502
-7.60471
-7.47776
-7.354
-7.2333
-7.11552
-7.00054
-6.88825
-6.77853
-6.67129
-6.56642
-6.46383
-6.36344
-6.26517
-6.16893
-6.07467
-5.98229
-5.89175
-5.80298
-5.71592
-5.63051
-5.54671
-5.46445
-5.3837
-5.3044
-5.22652
-5.15
-5.07482
-5.00093
-4.92829
-4.85688
-4.78666
-4.71759
-4.64964
-4.58279
-4.51701
-4.45227
-4.38854
-4.3258
-4.26402
-4.20319
-4.14328
-4.08427
-4.02613
-3.96885
-3.91242
-3.8568
-3.80198
-3.74795
-3.69469
-3.64218
-3.59041
-3.53936
-3.48901
-3.43937
-3.3904
-3.3421
-3.29445
-3.24745
-3.20107
-3.15532
-3.11017
-3.06562
-3.02165
-2.97827
-2.93544
-2.89318
-2.85146
-2.81028
-2.76963
-2.7295
-2.68988
-2.65077
-2.61216
-2.57403
-2.53639
-2.49922
-2.46251
-2.42627
-2.39048
-2.35514
-2.32024
-2.28578
-2.25174
-2.21813
-2.18494
-2.15215
-2.11978
-2.0878
-2.05622
-2.02503
-1.99423
-1.96381
-1.93376
-1.90409
-1.87478
-1.84584
-1.81726
-1.78903
-1.76115
-1.73361
-1.70642
-1.67957
-1.65305
-1.62686
-1.601
-1.57546
-1.55024
-1.52534
-1.50075
-1.47647
-1.4525
-1.42883
-1.40546
-1.38239
-1.35961
-1.33712
-1.31492
-1.29301
-1.27137
-1.25002
-1.22894
-1.20814
-1.1876
-1.16734
-1.14734
-1.1276
-1.10812
-1.0889
-1.06994
-1.05122
-1.03276
-1.01454
-0.996574
-0.978845
-0.961357
-0.944106
-0.92709
-0.910307
-0.893755
-0.87743
-0.861332
-0.845457
-0.829803
-0.814369
-0.799151
-0.784148
-0.769357
-0.754777
-0.740404
-0.726237
-0.712274
-0.698512
-0.68495
-0.671584
-0.658414
-0.645437
-0.632651
-0.620053
-0.607643
-0.595417
-0.583374
-0.571511
-0.559827
-0.54832
-0.536987
-0.525828
-0.514838
-0.504018
-0.493365
-0.482876
-0.47255
-0.462386
-0.45238
-0.442532
-0.43284
-0.423301
-0.413914
-0.404677
-0.395588
-0.386646
-0.377848
-0.369193
-0.360679
-0.352304
-0.344068
-0.335967
-0.328
-0.320166