/*--------------------------------*- C++ -*----------------------------------*\
| =========                 |                                                 |
| \\      /  F ield         | OpenFOAM: The Open Source CFD Toolbox           |
|  \\    /   O peration     | Version:  2506                                  |
|   \\  /    A nd           | Website:  www.openfoam.com                      |
|    \\/     M anipulation  |                                                 |
\*---------------------------------------------------------------------------*/
FoamFile
{
    version     2.0;
    format      ascii;
    arch        "LSB;label=32;scalar=64";
    class       surfaceScalarField;
    location    "500";
    object      phi;
}
// * * * * * * * * * * * * * * * * * * * * * * * * * * * * * * * * * * * * * //

dimensions      [0 3 -1 0 0 0 0];

oriented        oriented;

internalField   nonuniform List<scalar> 
266147
(
0.00237347
0.000117012
0.0023151
5.83705e-05
0.00227865
3.64522e-05
0.00225492
2.3733e-05
0.0022381
1.68149e-05
0.00222486
1.32435e-05
0.00221383
1.10296e-05
0.00220438
9.44852e-06
0.0021961
8.28076e-06
0.00218871
7.38649e-06
0.00218204
6.67201e-06
0.00217596
6.08561e-06
0.00217036
5.59574e-06
0.00216518
5.18e-06
0.00216036
4.82234e-06
0.00215585
4.51121e-06
0.00215161
4.23795e-06
0.00214761
3.99596e-06
0.00214383
3.78008e-06
0.00214025
3.58622e-06
0.00213684
3.41113e-06
0.00213358
3.25215e-06
0.00213048
3.10711e-06
0.0021275
2.97423e-06
0.00212465
2.85199e-06
0.00212191
2.73914e-06
0.00211928
2.63461e-06
0.00211674
2.53748e-06
0.00211429
2.44698e-06
0.00211193
2.36243e-06
0.00210965
2.28323e-06
0.00210744
2.20889e-06
0.0021053
2.13894e-06
0.00210323
2.07301e-06
0.00210121
2.01072e-06
0.00209926
1.95179e-06
0.00209737
1.89594e-06
0.00209552
1.84291e-06
0.00209373
1.79249e-06
0.00209199
1.74448e-06
0.00209029
1.6987e-06
0.00208863
1.655e-06
0.00208702
1.61322e-06
0.00208545
1.57324e-06
0.00208391
1.53493e-06
0.00208241
1.49818e-06
0.00208095
1.4629e-06
0.00207952
1.42899e-06
0.00207813
1.39637e-06
0.00207676
1.36496e-06
0.00207543
1.33469e-06
0.00207412
1.30549e-06
0.00207284
1.2773e-06
0.00207159
1.25007e-06
0.00207037
1.22374e-06
0.00206917
1.19827e-06
0.002068
1.1736e-06
0.00206685
1.14971e-06
0.00206572
1.12654e-06
0.00206462
1.10407e-06
0.00206353
1.08225e-06
0.00206247
1.06106e-06
0.00206143
1.04047e-06
0.00206041
1.02045e-06
0.00205941
1.00097e-06
0.00205843
9.8201e-07
0.00205747
9.63543e-07
0.00205652
9.45549e-07
0.00205559
9.28008e-07
0.00205468
9.109e-07
0.00205379
8.94206e-07
0.00205291
8.7791e-07
0.00205205
8.61995e-07
0.0020512
8.46446e-07
0.00205037
8.31247e-07
0.00204955
8.16386e-07
0.00204875
8.01849e-07
0.00204796
7.87623e-07
0.00204719
7.73696e-07
0.00204643
7.60058e-07
0.00204568
7.46698e-07
0.00204495
7.33605e-07
0.00204423
7.20769e-07
0.00204352
7.08182e-07
0.00204282
6.95834e-07
0.00204214
6.83718e-07
0.00204147
6.71824e-07
0.00204081
6.60146e-07
0.00204016
6.48675e-07
0.00203952
6.37406e-07
0.0020389
6.2633e-07
0.00203828
6.15443e-07
0.00203768
6.04737e-07
0.00203708
5.94206e-07
0.0020365
5.83846e-07
0.00203592
5.7365e-07
0.00203536
5.63614e-07
0.00203481
5.53732e-07
0.00203426
5.44e-07
0.00203373
5.34413e-07
0.0020332
5.24966e-07
0.00203269
5.15656e-07
0.00203218
5.06478e-07
0.00203168
4.97428e-07
0.0020312
4.88503e-07
0.00203072
4.79699e-07
0.00203024
4.71013e-07
0.00202978
4.62441e-07
0.00202933
4.5398e-07
0.00202888
4.45626e-07
0.00202845
4.37378e-07
0.00202802
4.29231e-07
0.00202759
4.21184e-07
0.00202718
4.13234e-07
0.00202678
4.05377e-07
0.00202638
3.97612e-07
0.00202599
3.89936e-07
0.00202561
3.82347e-07
0.00202523
3.74843e-07
0.00202486
3.67421e-07
0.0020245
3.6008e-07
0.00202415
3.52817e-07
0.00202381
3.45632e-07
0.00202347
3.3852e-07
0.00202314
3.31483e-07
0.00202281
3.24516e-07
0.00202249
3.1762e-07
0.00202218
3.10791e-07
0.00202188
3.0403e-07
0.00202158
2.97334e-07
0.00202129
2.90702e-07
0.00202101
2.84133e-07
0.00202073
2.77625e-07
0.00202046
2.71177e-07
0.00202019
2.64789e-07
0.00201993
2.58459e-07
0.00201968
2.52186e-07
0.00201944
2.45968e-07
0.0020192
2.39806e-07
0.00201896
2.33698e-07
0.00201873
2.27643e-07
0.00201851
2.21641e-07
0.0020183
2.1569e-07
0.00201809
2.0979e-07
0.00201788
2.03941e-07
0.00201769
1.98141e-07
0.00201749
1.9239e-07
0.00201731
1.86687e-07
0.00201713
1.81032e-07
0.00201695
1.75424e-07
0.00201678
1.69864e-07
0.00201662
1.64349e-07
0.00201646
1.5888e-07
0.0020163
1.53457e-07
0.00201615
1.48079e-07
0.00201601
1.42746e-07
0.00201587
1.37457e-07
0.00201574
1.32212e-07
0.00201562
1.27011e-07
0.00201549
1.21854e-07
0.00201538
1.1674e-07
0.00201527
1.1167e-07
0.00201516
1.06642e-07
0.00201506
1.01658e-07
0.00201496
9.67159e-08
0.00201487
9.18166e-08
0.00201478
8.696e-08
0.0020147
8.21456e-08
0.00201462
7.73737e-08
0.00201455
7.26439e-08
0.00201448
6.79565e-08
0.00201442
6.33112e-08
0.00201436
5.87082e-08
0.00201431
5.41471e-08
0.00201426
4.96284e-08
0.00201421
4.51516e-08
0.00201417
4.07171e-08
0.00201413
3.63247e-08
0.0020141
3.19745e-08
0.00201407
2.76664e-08
0.00201405
2.34007e-08
0.00201403
1.91771e-08
0.00201402
1.49959e-08
0.00201401
1.08569e-08
0.002014
6.76038e-09
0.002014
2.70611e-09
0.002014
-1.3056e-09
0.002014
-5.27501e-09
0.00201401
-9.20179e-09
0.00201402
-1.30862e-08
0.00201404
-1.6928e-08
0.00201406
-2.07273e-08
0.00201409
-2.4484e-08
0.00201411
-2.81982e-08
0.00201415
-3.18697e-08
0.00201418
-3.54988e-08
0.00201422
-3.90852e-08
0.00201426
-4.26293e-08
0.00201431
-4.61306e-08
0.00201436
-4.95897e-08
0.00201441
-5.30061e-08
0.00201447
-5.63804e-08
0.00201453
-5.97121e-08
0.00201459
-6.30018e-08
0.00201466
-6.62491e-08
0.00201473
-6.94545e-08
0.0020148
-7.26178e-08
0.00201488
-7.57393e-08
0.00201495
-7.88189e-08
0.00201504
-8.18571e-08
0.00201512
-8.48535e-08
0.00201521
-8.78088e-08
0.0020153
-9.07227e-08
0.00201539
-9.35957e-08
0.00201549
-9.64277e-08
0.00201559
-9.92191e-08
0.00201569
-1.0197e-07
0.0020158
-1.04681e-07
0.0020159
-1.07351e-07
0.00201601
-1.09982e-07
0.00201613
-1.12573e-07
0.00201624
-1.15124e-07
0.00201636
-1.17636e-07
0.00201648
-1.2011e-07
0.0020166
-1.22545e-07
0.00201673
-1.24941e-07
0.00201685
-1.27299e-07
0.00201698
-1.2962e-07
0.00201711
-1.31902e-07
0.00201725
-1.34148e-07
0.00201739
-1.36356e-07
0.00201752
-1.38528e-07
0.00201766
-1.40663e-07
0.00201781
-1.42763e-07
0.00201795
-1.44826e-07
0.0020181
-1.46854e-07
0.00201825
-1.48846e-07
0.0020184
-1.50804e-07
0.00201855
-1.52727e-07
0.00201871
-1.54617e-07
0.00201886
-1.56471e-07
0.00201902
-1.58293e-07
0.00201918
-1.60081e-07
0.00201934
-1.61836e-07
0.00201951
-1.63558e-07
0.00201967
-1.65248e-07
0.00201984
-1.66906e-07
0.00202001
-1.68533e-07
0.00202018
-1.70127e-07
0.00202035
-1.71691e-07
0.00202052
-1.73224e-07
0.0020207
-1.74726e-07
0.00202087
-1.76198e-07
0.00202105
-1.7764e-07
0.00202123
-1.79053e-07
0.00202141
-1.80436e-07
0.00202159
-1.8179e-07
0.00202177
-1.83115e-07
0.00202196
-1.84412e-07
0.00202214
-1.8568e-07
0.00202233
-1.8692e-07
0.00202252
-1.88133e-07
0.00202271
-1.89318e-07
0.0020229
-1.90476e-07
0.00202309
-1.91607e-07
0.00202328
-1.92711e-07
0.00202348
-1.93789e-07
0.00202367
-1.9484e-07
0.00202387
-1.95865e-07
0.00202407
-1.96864e-07
0.00202426
-1.97837e-07
0.00202446
-1.98785e-07
0.00202466
-1.99707e-07
0.00202486
-2.00604e-07
0.00202506
-2.01476e-07
0.00202527
-2.02324e-07
0.00202547
-2.03146e-07
0.00202567
-2.03944e-07
0.00202588
-2.04718e-07
0.00202608
-2.05467e-07
0.00202629
-2.06193e-07
0.0020265
-2.06894e-07
0.0020267
-2.07571e-07
0.00202691
-2.08225e-07
0.00202712
-2.08855e-07
0.00202733
-2.09461e-07
0.00202754
-2.10044e-07
0.00202775
-2.10603e-07
0.00202796
-2.11139e-07
0.00202817
-2.11653e-07
0.00202839
-2.12142e-07
0.0020286
-2.12609e-07
0.00202881
-2.13053e-07
0.00202902
-2.13474e-07
0.00202924
-2.13872e-07
0.00202945
-2.14247e-07
0.00202967
-2.14599e-07
0.00202988
-2.14929e-07
0.0020301
-2.15236e-07
0.00203031
-2.15521e-07
0.00203053
-2.15783e-07
0.00203075
-2.16022e-07
0.00203096
-2.16239e-07
0.00203118
-2.16434e-07
0.00203139
-2.16606e-07
0.00203161
-2.16756e-07
0.00203183
-2.16883e-07
0.00203204
-2.16989e-07
0.00203226
-2.17072e-07
0.00203248
-2.17133e-07
0.0020327
-2.17172e-07
0.00203291
-2.1719e-07
0.00203313
-2.17185e-07
0.00203335
-2.17158e-07
0.00203356
-2.1711e-07
0.00203378
-2.1704e-07
0.002034
-2.16948e-07
0.00203422
-2.16835e-07
0.00203443
-2.16701e-07
0.00203465
-2.16545e-07
0.00203487
-2.16368e-07
0.00203508
-2.1617e-07
0.0020353
-2.15951e-07
0.00203551
-2.15712e-07
0.00203573
-2.15451e-07
0.00203594
-2.15171e-07
0.00203616
-2.1487e-07
0.00203637
-2.14549e-07
0.00203659
-2.14208e-07
0.0020368
-2.13848e-07
0.00203701
-2.13468e-07
0.00203723
-2.1307e-07
0.00203744
-2.12652e-07
0.00203765
-2.12216e-07
0.00203786
-2.11762e-07
0.00203808
-2.1129e-07
0.00203829
-2.108e-07
0.0020385
-2.10293e-07
0.00203871
-2.09769e-07
0.00203892
-2.09229e-07
0.00203912
-2.08673e-07
0.00203933
-2.08101e-07
0.00203954
-2.07514e-07
0.00203975
-2.06913e-07
0.00203995
-2.06298e-07
0.00204016
-2.0567e-07
0.00204036
-2.05029e-07
0.00204057
-2.04376e-07
0.00204077
-2.03711e-07
0.00204098
-2.03035e-07
0.00204118
-2.02349e-07
0.00204138
-2.01655e-07
0.00204158
-2.00951e-07
0.00204178
-2.0024e-07
0.00204198
-1.99522e-07
0.00204218
-1.98798e-07
0.00204238
-1.9807e-07
0.00204257
-1.97337e-07
0.00204277
-1.96602e-07
0.00204297
-1.95865e-07
0.00204316
-1.95127e-07
0.00204336
-1.94389e-07
0.00204355
-1.93653e-07
0.00204374
-1.92921e-07
0.00204393
-1.92192e-07
0.00204413
-1.91469e-07
0.00204432
-1.90752e-07
0.00204451
-1.90045e-07
0.0020447
-1.89346e-07
0.00204489
-1.8866e-07
0.00204507
-1.87985e-07
0.00204526
-1.87326e-07
0.00204545
-1.86682e-07
0.00204563
-1.86056e-07
0.00204582
-1.85449e-07
0.002046
-1.84863e-07
0.00204619
-1.843e-07
0.00204637
-1.83761e-07
0.00204655
-1.83248e-07
0.00204674
-1.82763e-07
0.00204692
-1.82308e-07
0.0020471
-1.81883e-07
0.00204728
-1.81491e-07
0.00204746
-1.81133e-07
0.00204765
-1.80811e-07
0.00204783
-1.80526e-07
0.00204801
-1.80278e-07
0.00204819
-1.80069e-07
0.00204837
-1.799e-07
0.00204855
-1.79768e-07
0.00204873
-1.79675e-07
0.0020489
-1.79617e-07
0.00204908
-1.79592e-07
0.00204926
-1.79592e-07
0.00204944
-1.79611e-07
0.00204962
-1.7962e-07
0.0020498
-1.79664e-07
0.00204998
-1.79394e-07
0.00205016
-1.80134e-07
-1.75975e-07
0.00243699
0.000170511
0.00238645
0.000108911
0.00234549
7.74064e-05
0.00231243
5.67989e-05
0.00228645
4.2795e-05
0.00226591
3.37838e-05
0.00224923
2.77071e-05
0.00223536
2.33221e-05
0.00222357
2.00653e-05
0.00221337
1.75899e-05
0.00220439
1.56509e-05
0.00219638
1.4092e-05
0.00218916
1.28136e-05
0.0021826
1.17473e-05
0.00217657
1.08445e-05
0.00217102
1.00701e-05
0.00216586
9.39857e-06
0.00216104
8.8106e-06
0.00215653
8.29142e-06
0.00215229
7.82952e-06
0.00214828
7.41585e-06
0.00214449
7.04313e-06
0.00214089
6.70551e-06
0.00213747
6.39818e-06
0.0021342
6.11718e-06
0.00213108
5.8592e-06
0.0021281
5.62147e-06
0.00212523
5.40165e-06
0.00212248
5.19775e-06
0.00211983
5.00805e-06
0.00211729
4.83108e-06
0.00211483
4.66557e-06
0.00211246
4.5104e-06
0.00211017
4.3646e-06
0.00210795
4.22733e-06
0.0021058
4.09782e-06
0.00210372
3.97542e-06
0.00210171
3.85952e-06
0.00209975
3.7496e-06
0.00209785
3.6452e-06
0.002096
3.54588e-06
0.00209421
3.45127e-06
0.00209246
3.36101e-06
0.00209076
3.27481e-06
0.0020891
3.19238e-06
0.00208748
3.11345e-06
0.00208591
3.03781e-06
0.00208437
2.96523e-06
0.00208287
2.89552e-06
0.00208141
2.8285e-06
0.00207998
2.76401e-06
0.00207858
2.7019e-06
0.00207722
2.64202e-06
0.00207589
2.58425e-06
0.00207458
2.52847e-06
0.0020733
2.47457e-06
0.00207206
2.42245e-06
0.00207083
2.37201e-06
0.00206964
2.32316e-06
0.00206846
2.27583e-06
0.00206732
2.22994e-06
0.00206619
2.1854e-06
0.00206509
2.14217e-06
0.00206401
2.10017e-06
0.00206295
2.05935e-06
0.00206192
2.01965e-06
0.0020609
1.98102e-06
0.0020599
1.94341e-06
0.00205892
1.90678e-06
0.00205796
1.87108e-06
0.00205702
1.83628e-06
0.00205609
1.80232e-06
0.00205519
1.76919e-06
0.0020543
1.73685e-06
0.00205342
1.70525e-06
0.00205256
1.67438e-06
0.00205172
1.6442e-06
0.00205089
1.61469e-06
0.00205008
1.58582e-06
0.00204929
1.55756e-06
0.0020485
1.52989e-06
0.00204773
1.5028e-06
0.00204698
1.47625e-06
0.00204624
1.45023e-06
0.00204551
1.42472e-06
0.00204479
1.3997e-06
0.00204409
1.37516e-06
0.0020434
1.35107e-06
0.00204272
1.32742e-06
0.00204205
1.3042e-06
0.0020414
1.28139e-06
0.00204075
1.25898e-06
0.00204012
1.23695e-06
0.0020395
1.21529e-06
0.00203889
1.19399e-06
0.00203829
1.17304e-06
0.0020377
1.15243e-06
0.00203712
1.13214e-06
0.00203655
1.11216e-06
0.00203599
1.09249e-06
0.00203545
1.07312e-06
0.00203491
1.05404e-06
0.00203438
1.03523e-06
0.00203386
1.0167e-06
0.00203335
9.98421e-07
0.00203285
9.80401e-07
0.00203236
9.62627e-07
0.00203188
9.45093e-07
0.0020314
9.27793e-07
0.00203094
9.10718e-07
0.00203048
8.93863e-07
0.00203003
8.77222e-07
0.00202959
8.60789e-07
0.00202916
8.44558e-07
0.00202874
8.28523e-07
0.00202832
8.12681e-07
0.00202792
7.97024e-07
0.00202752
7.81549e-07
0.00202712
7.66252e-07
0.00202674
7.51126e-07
0.00202636
7.36169e-07
0.002026
7.21376e-07
0.00202564
7.06743e-07
0.00202528
6.92266e-07
0.00202493
6.77941e-07
0.0020246
6.63766e-07
0.00202426
6.49736e-07
0.00202394
6.35848e-07
0.00202362
6.22099e-07
0.00202331
6.08486e-07
0.002023
5.95007e-07
0.00202271
5.81658e-07
0.00202242
5.68436e-07
0.00202213
5.5534e-07
0.00202185
5.42367e-07
0.00202158
5.29514e-07
0.00202132
5.1678e-07
0.00202106
5.04161e-07
0.00202081
4.91657e-07
0.00202056
4.79265e-07
0.00202032
4.66983e-07
0.00202009
4.54809e-07
0.00201986
4.42743e-07
0.00201964
4.30782e-07
0.00201943
4.18924e-07
0.00201922
4.07169e-07
0.00201902
3.95515e-07
0.00201882
3.83961e-07
0.00201863
3.72506e-07
0.00201844
3.61148e-07
0.00201826
3.49886e-07
0.00201809
3.3872e-07
0.00201792
3.27648e-07
0.00201775
3.16669e-07
0.0020176
3.05784e-07
0.00201744
2.9499e-07
0.0020173
2.84288e-07
0.00201716
2.73677e-07
0.00201702
2.63156e-07
0.00201689
2.52724e-07
0.00201676
2.42381e-07
0.00201664
2.32127e-07
0.00201653
2.21961e-07
0.00201642
2.11882e-07
0.00201631
2.01892e-07
0.00201621
1.91988e-07
0.00201612
1.82171e-07
0.00201603
1.72441e-07
0.00201594
1.62798e-07
0.00201586
1.53241e-07
0.00201578
1.4377e-07
0.00201571
1.34385e-07
0.00201565
1.25086e-07
0.00201559
1.15873e-07
0.00201553
1.06745e-07
0.00201548
9.77039e-08
0.00201543
8.87481e-08
0.00201538
7.98783e-08
0.00201535
7.10941e-08
0.00201531
6.23958e-08
0.00201528
5.37833e-08
0.00201525
4.52566e-08
0.00201523
3.68158e-08
0.00201521
2.8461e-08
0.0020152
2.01921e-08
0.00201519
1.20092e-08
0.00201519
3.91229e-09
0.00201519
-4.09846e-09
0.00201519
-1.20232e-08
0.00201519
-1.98617e-08
0.00201521
-2.76141e-08
0.00201522
-3.52803e-08
0.00201524
-4.28604e-08
0.00201526
-5.03542e-08
0.00201529
-5.77619e-08
0.00201532
-6.50835e-08
0.00201535
-7.2319e-08
0.00201539
-7.94684e-08
0.00201543
-8.6532e-08
0.00201547
-9.35096e-08
0.00201552
-1.00402e-07
0.00201557
-1.07208e-07
0.00201562
-1.13929e-07
0.00201568
-1.20564e-07
0.00201574
-1.27114e-07
0.00201581
-1.33579e-07
0.00201587
-1.3996e-07
0.00201594
-1.46256e-07
0.00201602
-1.52467e-07
0.00201609
-1.58595e-07
0.00201617
-1.64638e-07
0.00201626
-1.70599e-07
0.00201634
-1.76476e-07
0.00201643
-1.8227e-07
0.00201652
-1.87982e-07
0.00201662
-1.93612e-07
0.00201671
-1.9916e-07
0.00201681
-2.04627e-07
0.00201692
-2.10013e-07
0.00201702
-2.15319e-07
0.00201713
-2.20545e-07
0.00201724
-2.25691e-07
0.00201735
-2.30759e-07
0.00201747
-2.35748e-07
0.00201759
-2.40659e-07
0.00201771
-2.45493e-07
0.00201783
-2.5025e-07
0.00201796
-2.5493e-07
0.00201808
-2.59535e-07
0.00201821
-2.64065e-07
0.00201835
-2.6852e-07
0.00201848
-2.72901e-07
0.00201862
-2.77209e-07
0.00201876
-2.81444e-07
0.0020189
-2.85608e-07
0.00201904
-2.89699e-07
0.00201918
-2.9372e-07
0.00201933
-2.9767e-07
0.00201948
-3.01551e-07
0.00201963
-3.05363e-07
0.00201978
-3.09106e-07
0.00201994
-3.12782e-07
0.00202009
-3.16391e-07
0.00202025
-3.19933e-07
0.00202041
-3.2341e-07
0.00202057
-3.26822e-07
0.00202074
-3.30169e-07
0.0020209
-3.33452e-07
0.00202107
-3.36671e-07
0.00202124
-3.39829e-07
0.00202141
-3.42924e-07
0.00202158
-3.45958e-07
0.00202175
-3.48931e-07
0.00202192
-3.51843e-07
0.0020221
-3.54697e-07
0.00202228
-3.57491e-07
0.00202245
-3.60226e-07
0.00202263
-3.62904e-07
0.00202282
-3.65524e-07
0.002023
-3.68088e-07
0.00202318
-3.70595e-07
0.00202337
-3.73047e-07
0.00202355
-3.75443e-07
0.00202374
-3.77784e-07
0.00202393
-3.80071e-07
0.00202412
-3.82305e-07
0.00202431
-3.84485e-07
0.0020245
-3.86612e-07
0.00202469
-3.88686e-07
0.00202489
-3.90709e-07
0.00202508
-3.9268e-07
0.00202528
-3.94599e-07
0.00202547
-3.96468e-07
0.00202567
-3.98286e-07
0.00202587
-4.00054e-07
0.00202607
-4.01773e-07
0.00202627
-4.03442e-07
0.00202647
-4.05061e-07
0.00202667
-4.06632e-07
0.00202688
-4.08154e-07
0.00202708
-4.09628e-07
0.00202728
-4.11054e-07
0.00202749
-4.12432e-07
0.00202769
-4.13762e-07
0.0020279
-4.15046e-07
0.00202811
-4.16282e-07
0.00202831
-4.17471e-07
0.00202852
-4.18613e-07
0.00202873
-4.19709e-07
0.00202894
-4.20759e-07
0.00202915
-4.21762e-07
0.00202936
-4.2272e-07
0.00202957
-4.23631e-07
0.00202978
-4.24497e-07
0.00202999
-4.25317e-07
0.0020302
-4.26092e-07
0.00203042
-4.26821e-07
0.00203063
-4.27505e-07
0.00203084
-4.28144e-07
0.00203106
-4.28738e-07
0.00203127
-4.29287e-07
0.00203148
-4.29791e-07
0.0020317
-4.3025e-07
0.00203191
-4.30665e-07
0.00203213
-4.31035e-07
0.00203234
-4.3136e-07
0.00203255
-4.31642e-07
0.00203277
-4.31879e-07
0.00203298
-4.32072e-07
0.0020332
-4.3222e-07
0.00203342
-4.32325e-07
0.00203363
-4.32386e-07
0.00203385
-4.32404e-07
0.00203406
-4.32378e-07
0.00203428
-4.32308e-07
0.00203449
-4.32195e-07
0.00203471
-4.3204e-07
0.00203492
-4.31841e-07
0.00203514
-4.31599e-07
0.00203535
-4.31315e-07
0.00203557
-4.30989e-07
0.00203578
-4.30621e-07
0.00203599
-4.30211e-07
0.00203621
-4.29759e-07
0.00203642
-4.29267e-07
0.00203664
-4.28733e-07
0.00203685
-4.28159e-07
0.00203706
-4.27544e-07
0.00203727
-4.2689e-07
0.00203749
-4.26196e-07
0.0020377
-4.25464e-07
0.00203791
-4.24693e-07
0.00203812
-4.23884e-07
0.00203833
-4.23037e-07
0.00203854
-4.22154e-07
0.00203875
-4.21234e-07
0.00203896
-4.20279e-07
0.00203917
-4.19289e-07
0.00203938
-4.18265e-07
0.00203959
-4.17207e-07
0.0020398
-4.16117e-07
0.00204
-4.14995e-07
0.00204021
-4.13842e-07
0.00204041
-4.1266e-07
0.00204062
-4.11449e-07
0.00204082
-4.10209e-07
0.00204103
-4.08944e-07
0.00204123
-4.07653e-07
0.00204143
-4.06337e-07
0.00204164
-4.04999e-07
0.00204184
-4.0364e-07
0.00204204
-4.0226e-07
0.00204224
-4.00862e-07
0.00204244
-3.99447e-07
0.00204264
-3.98017e-07
0.00204283
-3.96573e-07
0.00204303
-3.95117e-07
0.00204323
-3.93652e-07
0.00204342
-3.92179e-07
0.00204362
-3.907e-07
0.00204381
-3.89217e-07
0.002044
-3.87733e-07
0.0020442
-3.8625e-07
0.00204439
-3.8477e-07
0.00204458
-3.83296e-07
0.00204477
-3.81829e-07
0.00204496
-3.80374e-07
0.00204515
-3.78932e-07
0.00204534
-3.77507e-07
0.00204552
-3.76101e-07
0.00204571
-3.74717e-07
0.0020459
-3.73359e-07
0.00204608
-3.72028e-07
0.00204627
-3.7073e-07
0.00204645
-3.69465e-07
0.00204663
-3.68239e-07
0.00204682
-3.67054e-07
0.002047
-3.65914e-07
0.00204718
-3.64821e-07
0.00204736
-3.63779e-07
0.00204754
-3.62792e-07
0.00204772
-3.61863e-07
0.0020479
-3.60994e-07
0.00204808
-3.60189e-07
0.00204826
-3.59451e-07
0.00204844
-3.58781e-07
0.00204862
-3.58183e-07
0.00204879
-3.57658e-07
0.00204897
-3.57206e-07
0.00204915
-3.56827e-07
0.00204932
-3.56521e-07
0.0020495
-3.56283e-07
0.00204968
-3.56108e-07
0.00204985
-3.55985e-07
0.00205003
-3.559e-07
0.00205021
-3.55818e-07
0.00205038
-3.55731e-07
0.00205056
-3.55418e-07
0.00205073
-3.55199e-07
-3.522e-07
0.00247084
0.000190158
0.00243653
0.000143226
0.00240244
0.00011149
0.00237102
8.82233e-05
0.00234326
7.0557e-05
0.00231944
5.76036e-05
0.00229907
4.80699e-05
0.00228155
4.08451e-05
0.00226635
3.52645e-05
0.00225305
3.08911e-05
0.0022413
2.7402e-05
0.00223082
2.45683e-05
0.0022214
2.22312e-05
0.00221287
2.02773e-05
0.0022051
1.8623e-05
0.00219796
1.72067e-05
0.00219138
1.59819e-05
0.00218527
1.49133e-05
0.00217959
1.39733e-05
0.00217428
1.31405e-05
0.0021693
1.23978e-05
0.00216461
1.17316e-05
0.00216018
1.11307e-05
0.002156
1.0586e-05
0.00215202
1.009e-05
0.00214825
9.63657e-06
0.00214465
9.22037e-06
0.00214121
8.83701e-06
0.00213793
8.48273e-06
0.00213478
8.15432e-06
0.00213176
7.84902e-06
0.00212886
7.56445e-06
0.00212607
7.29854e-06
0.00212339
7.04948e-06
0.0021208
6.8157e-06
0.0021183
6.59579e-06
0.00211589
6.38853e-06
0.00211356
6.19283e-06
0.0021113
6.00773e-06
0.00210911
5.83236e-06
0.00210699
5.66595e-06
0.00210493
5.5078e-06
0.00210294
5.35729e-06
0.002101
5.21386e-06
0.00209911
5.077e-06
0.00209728
4.94625e-06
0.0020955
4.82118e-06
0.00209376
4.70142e-06
0.00209207
4.58662e-06
0.00209042
4.47646e-06
0.00208882
4.37064e-06
0.00208725
4.2689e-06
0.00208572
4.17099e-06
0.00208423
4.07669e-06
0.00208277
3.98578e-06
0.00208135
3.89807e-06
0.00207996
3.81339e-06
0.0020786
3.73156e-06
0.00207727
3.65243e-06
0.00207597
3.57586e-06
0.0020747
3.50171e-06
0.00207345
3.42986e-06
0.00207223
3.3602e-06
0.00207104
3.29261e-06
0.00206987
3.227e-06
0.00206873
3.16327e-06
0.00206761
3.10133e-06
0.00206651
3.0411e-06
0.00206544
2.9825e-06
0.00206438
2.92545e-06
0.00206335
2.86989e-06
0.00206233
2.81574e-06
0.00206134
2.76296e-06
0.00206037
2.71148e-06
0.00205941
2.66125e-06
0.00205847
2.61221e-06
0.00205755
2.56432e-06
0.00205665
2.51753e-06
0.00205576
2.47179e-06
0.00205489
2.42706e-06
0.00205404
2.38331e-06
0.0020532
2.3405e-06
0.00205238
2.29859e-06
0.00205157
2.25754e-06
0.00205078
2.21733e-06
0.00205
2.17793e-06
0.00204924
2.1393e-06
0.00204849
2.10141e-06
0.00204775
2.06425e-06
0.00204703
2.02778e-06
0.00204632
1.99198e-06
0.00204562
1.95683e-06
0.00204493
1.9223e-06
0.00204426
1.88838e-06
0.0020436
1.85505e-06
0.00204295
1.82227e-06
0.00204231
1.79005e-06
0.00204168
1.75835e-06
0.00204107
1.72716e-06
0.00204047
1.69647e-06
0.00203987
1.66626e-06
0.00203929
1.63652e-06
0.00203872
1.60722e-06
0.00203816
1.57836e-06
0.0020376
1.54992e-06
0.00203706
1.5219e-06
0.00203653
1.49427e-06
0.00203601
1.46703e-06
0.0020355
1.44016e-06
0.00203499
1.41366e-06
0.0020345
1.38751e-06
0.00203402
1.3617e-06
0.00203354
1.33623e-06
0.00203307
1.31109e-06
0.00203262
1.28626e-06
0.00203217
1.26174e-06
0.00203173
1.23751e-06
0.00203129
1.21358e-06
0.00203087
1.18993e-06
0.00203046
1.16656e-06
0.00203005
1.14346e-06
0.00202965
1.12062e-06
0.00202926
1.09803e-06
0.00202887
1.0757e-06
0.0020285
1.05361e-06
0.00202813
1.03175e-06
0.00202777
1.01013e-06
0.00202742
9.88739e-07
0.00202707
9.67567e-07
0.00202673
9.46611e-07
0.0020264
9.25867e-07
0.00202608
9.05331e-07
0.00202576
8.84999e-07
0.00202545
8.64865e-07
0.00202515
8.44926e-07
0.00202485
8.25179e-07
0.00202457
8.05619e-07
0.00202428
7.86243e-07
0.00202401
7.67049e-07
0.00202374
7.48031e-07
0.00202348
7.29189e-07
0.00202322
7.10518e-07
0.00202297
6.92016e-07
0.00202273
6.7368e-07
0.00202249
6.55508e-07
0.00202226
6.37498e-07
0.00202204
6.19647e-07
0.00202182
6.01953e-07
0.00202161
5.84414e-07
0.0020214
5.67029e-07
0.0020212
5.49795e-07
0.00202101
5.32711e-07
0.00202082
5.15775e-07
0.00202064
4.98986e-07
0.00202046
4.82342e-07
0.00202029
4.65842e-07
0.00202013
4.49486e-07
0.00201997
4.33271e-07
0.00201981
4.17197e-07
0.00201966
4.01262e-07
0.00201952
3.85467e-07
0.00201938
3.69809e-07
0.00201925
3.54289e-07
0.00201912
3.38906e-07
0.002019
3.23658e-07
0.00201888
3.08546e-07
0.00201877
2.9357e-07
0.00201867
2.78727e-07
0.00201857
2.64019e-07
0.00201847
2.49444e-07
0.00201838
2.35004e-07
0.00201829
2.20696e-07
0.00201821
2.06521e-07
0.00201813
1.92479e-07
0.00201806
1.78569e-07
0.00201799
1.64792e-07
0.00201793
1.51148e-07
0.00201787
1.37635e-07
0.00201782
1.24255e-07
0.00201777
1.11007e-07
0.00201773
9.78908e-08
0.00201769
8.49068e-08
0.00201765
7.20549e-08
0.00201762
5.9335e-08
0.0020176
4.67472e-08
0.00201757
3.42913e-08
0.00201756
2.19675e-08
0.00201754
9.77568e-09
0.00201753
-2.28412e-09
0.00201753
-1.4212e-08
0.00201752
-2.60078e-08
0.00201753
-3.76718e-08
0.00201753
-4.92039e-08
0.00201754
-6.06041e-08
0.00201756
-7.18726e-08
0.00201758
-8.30095e-08
0.0020176
-9.40148e-08
0.00201762
-1.04889e-07
0.00201765
-1.15631e-07
0.00201768
-1.26243e-07
0.00201772
-1.36724e-07
0.00201776
-1.47074e-07
0.0020178
-1.57293e-07
0.00201785
-1.67383e-07
0.0020179
-1.77343e-07
0.00201796
-1.87173e-07
0.00201801
-1.96874e-07
0.00201807
-2.06446e-07
0.00201814
-2.1589e-07
0.0020182
-2.25206e-07
0.00201827
-2.34394e-07
0.00201834
-2.43456e-07
0.00201842
-2.5239e-07
0.0020185
-2.612e-07
0.00201858
-2.69883e-07
0.00201867
-2.78442e-07
0.00201875
-2.86877e-07
0.00201884
-2.95188e-07
0.00201894
-3.03377e-07
0.00201903
-3.11443e-07
0.00201913
-3.19388e-07
0.00201923
-3.27212e-07
0.00201934
-3.34917e-07
0.00201945
-3.42502e-07
0.00201955
-3.49969e-07
0.00201967
-3.57318e-07
0.00201978
-3.64551e-07
0.0020199
-3.71668e-07
0.00202002
-3.78671e-07
0.00202014
-3.85559e-07
0.00202026
-3.92334e-07
0.00202039
-3.98997e-07
0.00202052
-4.05548e-07
0.00202065
-4.1199e-07
0.00202078
-4.18322e-07
0.00202091
-4.24545e-07
0.00202105
-4.30661e-07
0.00202119
-4.36671e-07
0.00202133
-4.42575e-07
0.00202147
-4.48374e-07
0.00202162
-4.5407e-07
0.00202177
-4.59663e-07
0.00202191
-4.65155e-07
0.00202207
-4.70546e-07
0.00202222
-4.75837e-07
0.00202237
-4.8103e-07
0.00202253
-4.86125e-07
0.00202269
-4.91123e-07
0.00202284
-4.96025e-07
0.00202301
-5.00833e-07
0.00202317
-5.05546e-07
0.00202333
-5.10167e-07
0.0020235
-5.14695e-07
0.00202367
-5.19132e-07
0.00202383
-5.23479e-07
0.002024
-5.27737e-07
0.00202418
-5.31906e-07
0.00202435
-5.35987e-07
0.00202452
-5.39982e-07
0.0020247
-5.43891e-07
0.00202488
-5.47714e-07
0.00202506
-5.51453e-07
0.00202523
-5.55109e-07
0.00202542
-5.58682e-07
0.0020256
-5.62172e-07
0.00202578
-5.65582e-07
0.00202597
-5.6891e-07
0.00202615
-5.72159e-07
0.00202634
-5.75328e-07
0.00202653
-5.78419e-07
0.00202671
-5.81432e-07
0.0020269
-5.84367e-07
0.00202709
-5.87226e-07
0.00202729
-5.90009e-07
0.00202748
-5.92715e-07
0.00202767
-5.95347e-07
0.00202787
-5.97904e-07
0.00202806
-6.00387e-07
0.00202826
-6.02796e-07
0.00202846
-6.05132e-07
0.00202865
-6.07396e-07
0.00202885
-6.09587e-07
0.00202905
-6.11706e-07
0.00202925
-6.13753e-07
0.00202945
-6.1573e-07
0.00202965
-6.17635e-07
0.00202986
-6.1947e-07
0.00203006
-6.21235e-07
0.00203026
-6.2293e-07
0.00203046
-6.24555e-07
0.00203067
-6.26111e-07
0.00203087
-6.27598e-07
0.00203108
-6.29016e-07
0.00203129
-6.30365e-07
0.00203149
-6.31646e-07
0.0020317
-6.32858e-07
0.00203191
-6.34003e-07
0.00203211
-6.35079e-07
0.00203232
-6.36088e-07
0.00203253
-6.3703e-07
0.00203274
-6.37904e-07
0.00203295
-6.38711e-07
0.00203316
-6.39451e-07
0.00203337
-6.40124e-07
0.00203358
-6.4073e-07
0.00203379
-6.4127e-07
0.002034
-6.41743e-07
0.00203421
-6.4215e-07
0.00203442
-6.4249e-07
0.00203463
-6.42765e-07
0.00203484
-6.42974e-07
0.00203505
-6.43118e-07
0.00203526
-6.43196e-07
0.00203547
-6.43209e-07
0.00203568
-6.43156e-07
0.00203589
-6.43039e-07
0.0020361
-6.42857e-07
0.00203631
-6.42611e-07
0.00203652
-6.42301e-07
0.00203673
-6.41927e-07
0.00203694
-6.4149e-07
0.00203715
-6.4099e-07
0.00203737
-6.40426e-07
0.00203758
-6.39801e-07
0.00203778
-6.39113e-07
0.00203799
-6.38364e-07
0.0020382
-6.37553e-07
0.00203841
-6.36683e-07
0.00203862
-6.35752e-07
0.00203883
-6.34761e-07
0.00203904
-6.33712e-07
0.00203925
-6.32605e-07
0.00203945
-6.3144e-07
0.00203966
-6.30219e-07
0.00203987
-6.28942e-07
0.00204007
-6.2761e-07
0.00204028
-6.26223e-07
0.00204049
-6.24784e-07
0.00204069
-6.23292e-07
0.0020409
-6.21749e-07
0.0020411
-6.20157e-07
0.0020413
-6.18516e-07
0.00204151
-6.16827e-07
0.00204171
-6.15093e-07
0.00204191
-6.13314e-07
0.00204211
-6.11492e-07
0.00204231
-6.09628e-07
0.00204251
-6.07725e-07
0.00204271
-6.05783e-07
0.00204291
-6.03806e-07
0.00204311
-6.01794e-07
0.00204331
-5.99751e-07
0.0020435
-5.97677e-07
0.0020437
-5.95576e-07
0.00204389
-5.9345e-07
0.00204409
-5.913e-07
0.00204428
-5.89131e-07
0.00204448
-5.86943e-07
0.00204467
-5.84741e-07
0.00204486
-5.82528e-07
0.00204505
-5.80305e-07
0.00204524
-5.78077e-07
0.00204543
-5.75847e-07
0.00204562
-5.73618e-07
0.00204581
-5.71393e-07
0.002046
-5.69177e-07
0.00204618
-5.66973e-07
0.00204637
-5.64785e-07
0.00204655
-5.62617e-07
0.00204674
-5.60473e-07
0.00204692
-5.58358e-07
0.00204711
-5.56275e-07
0.00204729
-5.5423e-07
0.00204747
-5.52227e-07
0.00204765
-5.5027e-07
0.00204783
-5.48365e-07
0.00204801
-5.46515e-07
0.00204819
-5.44726e-07
0.00204837
-5.43003e-07
0.00204854
-5.41351e-07
0.00204872
-5.39773e-07
0.0020489
-5.38276e-07
0.00204907
-5.36864e-07
0.00204925
-5.3554e-07
0.00204942
-5.3431e-07
0.0020496
-5.33176e-07
0.00204977
-5.32143e-07
0.00204995
-5.31213e-07
0.00205012
-5.30387e-07
0.00205029
-5.29666e-07
0.00205046
-5.29048e-07
0.00205064
-5.2853e-07
0.00205081
-5.28104e-07
0.00205098
-5.27758e-07
0.00205115
-5.27474e-07
0.00205132
-5.27217e-07
0.00205149
-5.26958e-07
0.00205166
-5.26511e-07
0.00205184
-5.25982e-07
-5.22862e-07
0.00248171
0.000198932
0.00246142
0.000163518
0.00243772
0.000135195
0.00241325
0.000112692
0.00238933
9.44684e-05
0.00236699
7.99502e-05
0.00234659
6.84693e-05
0.00232814
5.92973e-05
0.00231151
5.18946e-05
0.00229652
4.58731e-05
0.002283
4.09279e-05
0.00227074
3.68223e-05
0.0022596
3.33782e-05
0.00224941
3.04608e-05
0.00224007
2.79665e-05
0.00223146
2.58153e-05
0.0022235
2.3945e-05
0.00221611
2.23068e-05
0.00220922
2.0862e-05
0.00220278
1.95798e-05
0.00219674
1.84353e-05
0.00219106
1.74082e-05
0.00218571
1.64818e-05
0.00218066
1.56426e-05
0.00217587
1.48791e-05
0.00217132
1.41817e-05
0.002167
1.35424e-05
0.00216288
1.29543e-05
0.00215895
1.24117e-05
0.0021552
1.19095e-05
0.0021516
1.14434e-05
0.00214816
1.10097e-05
0.00214485
1.06052e-05
0.00214167
1.0227e-05
0.00213862
9.87259e-06
0.00213567
9.53985e-06
0.00213283
9.22683e-06
0.00213009
8.93181e-06
0.00212745
8.65326e-06
0.00212489
8.38984e-06
0.00212242
8.14031e-06
0.00212002
7.9036e-06
0.0021177
7.67872e-06
0.00211545
7.46479e-06
0.00211327
7.261e-06
0.00211114
7.06663e-06
0.00210908
6.88103e-06
0.00210708
6.70359e-06
0.00210514
6.53377e-06
0.00210324
6.37107e-06
0.0021014
6.21503e-06
0.0020996
6.06524e-06