/*--------------------------------*- C++ -*----------------------------------*\
| =========                 |                                                 |
| \\      /  F ield         | OpenFOAM: The Open Source CFD Toolbox           |
|  \\    /   O peration     | Version:  2506                                  |
|   \\  /    A nd           | Website:  www.openfoam.com                      |
|    \\/     M anipulation  |                                                 |
\*---------------------------------------------------------------------------*/
FoamFile
{
    version     2.0;
    format      ascii;
    arch        "LSB;label=32;scalar=64";
    class       volVectorField;
    location    "500";
    object      U;
}
// * * * * * * * * * * * * * * * * * * * * * * * * * * * * * * * * * * * * * //

dimensions      [0 1 -1 0 0 0 0];

internalField   nonuniform List<vector> 
131949
(
(9.79004 0.50869 0)
(9.35424 0.191718 0)
(9.14346 0.0846577 0)
(9.05442 0.0439537 0)
(8.98406 0.0273119 0)
(8.92302 0.0209582 0)
(8.87475 0.017955 0)
(8.83487 0.0158984 0)
(8.79991 0.0143149 0)
(8.76875 0.0130458 0)
(8.74079 0.0119813 0)
(8.71541 0.0110687 0)
(8.69215 0.0102807 0)
(8.67067 0.00959476 0)
(8.65072 0.00899242 0)
(8.6321 0.00845957 0)
(8.61464 0.00798514 0)
(8.5982 0.00756012 0)
(8.58268 0.00717723 0)
(8.56797 0.0068305 0)
(8.55399 0.00651503 0)
(8.54068 0.00622674 0)
(8.52798 0.00596225 0)
(8.51583 0.00571866 0)
(8.50418 0.00549358 0)
(8.49301 0.00528491 0)
(8.48227 0.0050909 0)
(8.47193 0.00491001 0)
(8.46197 0.00474093 0)
(8.45236 0.00458249 0)
(8.44307 0.0044337 0)
(8.43409 0.00429368 0)
(8.4254 0.00416164 0)
(8.41698 0.00403689 0)
(8.40882 0.00391882 0)
(8.4009 0.00380689 0)
(8.3932 0.00370062 0)
(8.38573 0.00359955 0)
(8.37846 0.00350331 0)
(8.37139 0.00341153 0)
(8.36451 0.0033239 0)
(8.3578 0.00324012 0)
(8.35127 0.00315993 0)
(8.34489 0.0030831 0)
(8.33868 0.0030094 0)
(8.33261 0.00293863 0)
(8.32669 0.00287061 0)
(8.32091 0.00280517 0)
(8.31526 0.00274216 0)
(8.30974 0.00268142 0)
(8.30434 0.00262284 0)
(8.29906 0.00256629 0)
(8.2939 0.00251166 0)
(8.28884 0.00245884 0)
(8.2839 0.00240773 0)
(8.27905 0.00235825 0)
(8.27431 0.0023103 0)
(8.26966 0.00226383 0)
(8.26511 0.00221874 0)
(8.26065 0.00217497 0)
(8.25628 0.00213246 0)
(8.25199 0.00209115 0)
(8.24779 0.00205098 0)
(8.24367 0.0020119 0)
(8.23963 0.00197385 0)
(8.23566 0.00193681 0)
(8.23177 0.00190071 0)
(8.22795 0.00186552 0)
(8.22421 0.00183119 0)
(8.22053 0.00179771 0)
(8.21692 0.00176502 0)
(8.21338 0.00173309 0)
(8.2099 0.0017019 0)
(8.20648 0.00167141 0)
(8.20312 0.0016416 0)
(8.19983 0.00161244 0)
(8.19659 0.00158391 0)
(8.19341 0.00155598 0)
(8.19029 0.00152863 0)
(8.18722 0.00150183 0)
(8.18421 0.00147557 0)
(8.18125 0.00144983 0)
(8.17834 0.00142459 0)
(8.17548 0.00139982 0)
(8.17268 0.00137553 0)
(8.16992 0.00135168 0)
(8.16721 0.00132826 0)
(8.16454 0.00130526 0)
(8.16193 0.00128266 0)
(8.15935 0.00126046 0)
(8.15683 0.00123863 0)
(8.15434 0.00121716 0)
(8.1519 0.00119605 0)
(8.1495 0.00117528 0)
(8.14715 0.00115484 0)
(8.14483 0.00113472 0)
(8.14256 0.00111492 0)
(8.14032 0.00109541 0)
(8.13813 0.00107619 0)
(8.13597 0.00105726 0)
(8.13385 0.0010386 0)
(8.13177 0.0010202 0)
(8.12973 0.00100206 0)
(8.12772 0.000984177 0)
(8.12575 0.000966534 0)
(8.12381 0.000949126 0)
(8.12191 0.000931948 0)
(8.12004 0.000914993 0)
(8.11821 0.000898254 0)
(8.11641 0.000881726 0)
(8.11465 0.000865403 0)
(8.11291 0.000849279 0)
(8.11121 0.00083335 0)
(8.10954 0.000817608 0)
(8.10791 0.000802051 0)
(8.1063 0.000786673 0)
(8.10473 0.000771469 0)
(8.10318 0.000756434 0)
(8.10167 0.000741566 0)
(8.10018 0.000726859 0)
(8.09873 0.00071231 0)
(8.0973 0.000697915 0)
(8.0959 0.000683669 0)
(8.09454 0.000669571 0)
(8.0932 0.000655616 0)
(8.09188 0.0006418 0)
(8.0906 0.000628122 0)
(8.08934 0.000614577 0)
(8.08811 0.000601164 0)
(8.08691 0.000587879 0)
(8.08573 0.000574719 0)
(8.08458 0.000561683 0)
(8.08346 0.000548767 0)
(8.08236 0.00053597 0)
(8.08129 0.000523288 0)
(8.08025 0.000510721 0)
(8.07922 0.000498266 0)
(8.07823 0.00048592 0)
(8.07726 0.000473683 0)
(8.07631 0.000461552 0)
(8.07539 0.000449526 0)
(8.07449 0.000437603 0)
(8.07361 0.000425782 0)
(8.07276 0.000414061 0)
(8.07193 0.000402438 0)
(8.07113 0.000390914 0)
(8.07035 0.000379485 0)
(8.06959 0.000368152 0)
(8.06886 0.000356913 0)
(8.06814 0.000345767 0)
(8.06745 0.000334714 0)
(8.06678 0.000323751 0)
(8.06614 0.000312879 0)
(8.06551 0.000302097 0)
(8.06491 0.000291404 0)
(8.06433 0.000280799 0)
(8.06377 0.000270282 0)
(8.06323 0.000259852 0)
(8.06271 0.000249509 0)
(8.06221 0.000239252 0)
(8.06174 0.000229081 0)
(8.06128 0.000218995 0)
(8.06084 0.000208994 0)
(8.06043 0.000199078 0)
(8.06003 0.000189247 0)
(8.05965 0.0001795 0)
(8.05929 0.000169837 0)
(8.05896 0.000160259 0)
(8.05864 0.000150764 0)
(8.05834 0.000141352 0)
(8.05806 0.000132025 0)
(8.05779 0.000122781 0)
(8.05755 0.00011362 0)
(8.05732 0.000104543 0)
(8.05712 9.55498e-05 0)
(8.05693 8.66398e-05 0)
(8.05675 7.78136e-05 0)
(8.0566 6.90709e-05 0)
(8.05646 6.0412e-05 0)
(8.05634 5.18367e-05 0)
(8.05624 4.33454e-05 0)
(8.05616 3.49378e-05 0)
(8.05609 2.66143e-05 0)
(8.05604 1.83747e-05 0)
(8.056 1.02194e-05 0)
(8.05598 2.14808e-06 0)
(8.05598 -5.83874e-06 0)
(8.05599 -1.37414e-05 0)
(8.05602 -2.15595e-05 0)
(8.05607 -2.92933e-05 0)
(8.05613 -3.69423e-05 0)
(8.0562 -4.45069e-05 0)
(8.05629 -5.19867e-05 0)
(8.0564 -5.93822e-05 0)
(8.05652 -6.66926e-05 0)
(8.05665 -7.39187e-05 0)
(8.0568 -8.10599e-05 0)
(8.05697 -8.81167e-05 0)
(8.05714 -9.50887e-05 0)
(8.05733 -0.000101976 1.77207e-105)
(8.05754 -0.000108779 -1.77198e-105)
(8.05776 -0.000115498 0)
(8.05799 -0.000122133 0)
(8.05824 -0.000128684 0)
(8.05849 -0.00013515 0)
(8.05877 -0.000141533 0)
(8.05905 -0.000147832 0)
(8.05935 -0.000154048 0)
(8.05966 -0.00016018 0)
(8.05998 -0.00016623 0)
(8.06031 -0.000172197 0)
(8.06066 -0.000178081 0)
(8.06101 -0.000183884 0)
(8.06138 -0.000189605 0)
(8.06176 -0.000195244 0)
(8.06215 -0.000200802 0)
(8.06256 -0.00020628 0)
(8.06297 -0.000211677 0)
(8.06339 -0.000216994 0)
(8.06383 -0.000222232 0)
(8.06427 -0.000227391 0)
(8.06473 -0.000232472 0)
(8.06519 -0.000237474 0)
(8.06567 -0.000242399 0)
(8.06615 -0.000247247 0)
(8.06665 -0.000252018 0)
(8.06715 -0.000256713 0)
(8.06767 -0.000261333 0)
(8.06819 -0.000265878 0)
(8.06872 -0.000270348 0)
(8.06926 -0.000274745 0)
(8.06981 -0.000279068 0)
(8.07037 -0.000283319 0)
(8.07094 -0.000287498 0)
(8.07151 -0.000291605 0)
(8.0721 -0.000295642 0)
(8.07269 -0.000299609 0)
(8.07329 -0.000303506 0)
(8.0739 -0.000307334 0)
(8.07451 -0.000311094 0)
(8.07513 -0.000314786 0)
(8.07576 -0.000318411 0)
(8.0764 -0.000321969 0)
(8.07704 -0.000325462 0)
(8.07769 -0.00032889 0)
(8.07835 -0.000332253 0)
(8.07902 -0.000335552 0)
(8.07969 -0.000338788 0)
(8.08036 -0.000341961 0)
(8.08105 -0.000345073 0)
(8.08174 -0.000348122 0)
(8.08243 -0.000351111 0)
(8.08313 -0.000354039 0)
(8.08384 -0.000356908 0)
(8.08456 -0.000359718 0)
(8.08527 -0.000362469 0)
(8.086 -0.000365162 0)
(8.08673 -0.000367798 0)
(8.08746 -0.000370376 0)
(8.0882 -0.000372898 0)
(8.08895 -0.000375364 0)
(8.0897 -0.000377775 0)
(8.09045 -0.000380131 0)
(8.09121 -0.000382433 0)
(8.09198 -0.00038468 0)
(8.09275 -0.000386874 0)
(8.09352 -0.000389015 0)
(8.0943 -0.000391103 0)
(8.09508 -0.000393139 0)
(8.09586 -0.000395123 0)
(8.09665 -0.000397056 0)
(8.09745 -0.000398938 0)
(8.09824 -0.000400768 0)
(8.09904 -0.000402549 0)
(8.09985 -0.000404279 0)
(8.10066 -0.00040596 0)
(8.10147 -0.000407591 0)
(8.10228 -0.000409173 0)
(8.1031 -0.000410706 0)
(8.10392 -0.000412191 0)
(8.10474 -0.000413627 0)
(8.10557 -0.000415016 0)
(8.1064 -0.000416356 0)
(8.10723 -0.000417649 0)
(8.10806 -0.000418894 0)
(8.1089 -0.000420092 0)
(8.10974 -0.000421243 0)
(8.11058 -0.000422347 0)
(8.11142 -0.000423404 0)
(8.11227 -0.000424416 0)
(8.11312 -0.00042538 0)
(8.11397 -0.000426298 0)
(8.11482 -0.00042717 0)
(8.11567 -0.000427996 0)
(8.11653 -0.000428776 0)
(8.11738 -0.00042951 0)
(8.11824 -0.000430198 0)
(8.1191 -0.000430842 0)
(8.11996 -0.000431439 0)
(8.12082 -0.000431991 0)
(8.12168 -0.000432497 0)
(8.12255 -0.000432959 0)
(8.12341 -0.000433375 0)
(8.12428 -0.000433747 0)
(8.12514 -0.000434073 0)
(8.12601 -0.000434356 0)
(8.12688 -0.000434592 0)
(8.12774 -0.000434785 0)
(8.12861 -0.000434933 0)
(8.12948 -0.000435037 0)
(8.13035 -0.000435095 0)
(8.13122 -0.000435111 0)
(8.13209 -0.000435082 0)
(8.13296 -0.00043501 0)
(8.13382 -0.000434893 0)
(8.13469 -0.000434734 0)
(8.13556 -0.000434531 0)
(8.13643 -0.000434285 0)
(8.1373 -0.000433996 0)
(8.13816 -0.000433665 0)
(8.13903 -0.000433291 0)
(8.13989 -0.000432876 0)
(8.14076 -0.000432418 0)
(8.14162 -0.000431919 0)
(8.14248 -0.000431378 0)
(8.14334 -0.000430798 0)
(8.1442 -0.000430176 0)
(8.14506 -0.000429516 0)
(8.14592 -0.000428815 0)
(8.14678 -0.000428076 0)
(8.14763 -0.000427297 0)
(8.14848 -0.000426482 0)
(8.14934 -0.000425628 0)
(8.15019 -0.000424738 0)
(8.15103 -0.000423812 0)
(8.15188 -0.000422851 0)
(8.15272 -0.000421854 0)
(8.15357 -0.000420825 0)
(8.15441 -0.000419761 0)
(8.15524 -0.000418667 0)
(8.15608 -0.00041754 0)
(8.15691 -0.000416384 0)
(8.15775 -0.000415197 0)
(8.15857 -0.000413984 0)
(8.1594 -0.000412742 0)
(8.16022 -0.000411476 0)
(8.16105 -0.000410184 0)
(8.16186 -0.00040887 0)
(8.16268 -0.000407533 0)
(8.16349 -0.000406178 0)
(8.16431 -0.000404801 0)
(8.16511 -0.00040341 0)
(8.16592 -0.000402001 0)
(8.16672 -0.00040058 0)
(8.16752 -0.000399145 0)
(8.16832 -0.000397702 0)
(8.16911 -0.00039625 0)
(8.1699 -0.000394793 0)
(8.17069 -0.00039333 0)
(8.17147 -0.000391868 0)
(8.17226 -0.000390405 0)
(8.17304 -0.000388946 0)
(8.17381 -0.000387492 0)
(8.17458 -0.000386048 0)
(8.17536 -0.000384613 0)
(8.17612 -0.000383193 0)
(8.17689 -0.000381788 0)
(8.17765 -0.000380405 0)
(8.17841 -0.000379042 0)
(8.17916 -0.000377706 0)
(8.17992 -0.000376398 0)
(8.18067 -0.000375123 0)
(8.18142 -0.000373882 0)
(8.18216 -0.000372681 0)
(8.1829 -0.00037152 0)
(8.18364 -0.000370407 0)
(8.18438 -0.000369341 0)
(8.18512 -0.00036833 0)
(8.18585 -0.000367372 0)
(8.18658 -0.000366476 0)
(8.18731 -0.00036564 0)
(8.18804 -0.000364873 0)
(8.18877 -0.000364173 0)
(8.18949 -0.000363547 0)
(8.19022 -0.000362995 0)
(8.19094 -0.000362522 0)
(8.19166 -0.000362128 0)
(8.19238 -0.000361816 0)
(8.1931 -0.000361585 0)
(8.19382 -0.000361437 0)
(8.19454 -0.000361365 0)
(8.19526 -0.000361369 0)
(8.19598 -0.000361436 0)
(8.1967 -0.000361556 0)
(8.19741 -0.000361713 0)
(8.19813 -0.00036184 0)
(8.19885 -0.000362045 0)
(8.19958 -0.000361527 0)
(8.20024 -0.000363242 0)
(8.20122 -0.000354382 0)
(9.89636 0.592428 0)
(9.64868 0.329307 0)
(9.44654 0.219668 0)
(9.30553 0.153638 0)
(9.19287 0.111411 0)
(9.10032 0.0866484 0)
(9.02652 0.0710996 0)
(8.96656 0.0601987 0)
(8.916 0.0522235 0)
(8.87243 0.0462121 0)
(8.83436 0.0414976 0)
(8.80062 0.0376815 0)
(8.77034 0.0345258 0)
(8.7429 0.0318704 0)
(8.71781 0.0296017 0)
(8.69473 0.027639 0)
(8.67335 0.0259231 0)
(8.65345 0.0244093 0)
(8.63484 0.0230631 0)
(8.61737 0.0218577 0)
(8.6009 0.0207715 0)
(8.58533 0.0197874 0)
(8.57057 0.0188912 0)
(8.55654 0.0180714 0)
(8.54318 0.0173185 0)
(8.53042 0.0166243 0)
(8.51822 0.0159821 0)
(8.50653 0.015386 0)
(8.49531 0.0148311 0)
(8.48452 0.0143132 0)
(8.47414 0.0138285 0)
(8.46414 0.0133739 0)
(8.45449 0.0129464 0)
(8.44517 0.0125438 0)
(8.43616 0.0121637 0)
(8.42744 0.0118043 0)
(8.41899 0.0114638 0)
(8.4108 0.0111407 0)
(8.40286 0.0108337 0)
(8.39515 0.0105415 0)
(8.38765 0.010263 0)
(8.38037 0.00999727 0)
(8.37328 0.00974332 0)
(8.36639 0.00950036 0)
(8.35967 0.00926767 0)
(8.35313 0.00904455 0)
(8.34675 0.00883039 0)
(8.34053 0.00862462 0)
(8.33446 0.00842673 0)
(8.32853 0.00823623 0)
(8.32275 0.00805268 0)
(8.3171 0.00787569 0)
(8.31158 0.00770488 0)
(8.30618 0.0075399 0)
(8.3009 0.00738042 0)
(8.29574 0.00722617 0)
(8.29069 0.00707685 0)
(8.28575 0.00693221 0)
(8.28091 0.00679201 0)
(8.27618 0.00665603 0)
(8.27154 0.00652406 0)
(8.267 0.0063959 0)
(8.26254 0.00627138 0)
(8.25818 0.00615032 0)
(8.25391 0.00603255 0)
(8.24971 0.00591794 0)
(8.2456 0.00580633 0)
(8.24157 0.0056976 0)
(8.23762 0.00559162 0)
(8.23374 0.00548827 0)
(8.22994 0.00538744 0)
(8.22621 0.00528902 0)
(8.22254 0.00519292 0)
(8.21895 0.00509903 0)
(8.21542 0.00500728 0)
(8.21196 0.00491757 0)
(8.20856 0.00482982 0)
(8.20522 0.00474397 0)
(8.20194 0.00465993 0)
(8.19872 0.00457764 0)
(8.19556 0.00449704 0)
(8.19245 0.00441805 0)
(8.18941 0.00434063 0)
(8.18641 0.00426471 0)
(8.18347 0.00419024 0)
(8.18058 0.00411717 0)
(8.17774 0.00404546 0)
(8.17495 0.00397504 0)
(8.17221 0.00390589 0)
(8.16952 0.00383795 0)
(8.16688 0.00377119 0)
(8.16428 0.00370557 0)
(8.16173 0.00364105 0)
(8.15922 0.00357758 0)
(8.15676 0.00351515 0)
(8.15434 0.00345372 0)
(8.15197 0.00339325 0)
(8.14963 0.00333371 0)
(8.14734 0.00327508 0)
(8.14509 0.00321733 0)
(8.14287 0.00316043 0)
(8.1407 0.00310435 0)
(8.13857 0.00304907 0)
(8.13647 0.00299457 0)
(8.13441 0.00294082 0)
(8.13239 0.00288781 0)
(8.13041 0.0028355 0)
(8.12846 0.00278389 0)
(8.12654 0.00273295 0)
(8.12467 0.00268266 0)
(8.12282 0.002633 0)
(8.12101 0.00258396 0)
(8.11924 0.00253552 0)
(8.1175 0.00248767 0)
(8.11579 0.00244038 0)
(8.11411 0.00239364 0)
(8.11247 0.00234745 0)
(8.11085 0.00230177 0)
(8.10927 0.00225661 0)
(8.10772 0.00221195 0)
(8.1062 0.00216778 0)
(8.10471 0.00212408 0)
(8.10326 0.00208084 0)
(8.10183 0.00203806 0)
(8.10043 0.00199572 0)
(8.09905 0.00195381 0)
(8.09771 0.00191232 0)
(8.0964 0.00187124 0)
(8.09511 0.00183057 0)
(8.09385 0.00179029 0)
(8.09262 0.0017504 0)
(8.09142 0.00171089 0)
(8.09024 0.00167174 0)
(8.08909 0.00163297 0)
(8.08797 0.00159455 0)
(8.08687 0.00155648 0)
(8.0858 0.00151875 0)
(8.08475 0.00148136 0)
(8.08373 0.00144431 0)
(8.08274 0.00140758 0)
(8.08177 0.00137117 0)
(8.08082 0.00133507 0)
(8.0799 0.00129929 0)
(8.07901 0.00126382 0)
(8.07813 0.00122865 0)
(8.07729 0.00119378 0)
(8.07646 0.0011592 0)
(8.07566 0.00112492 0)
(8.07488 0.00109092 0)
(8.07413 0.00105721 0)
(8.0734 0.00102378 0)
(8.07269 0.00099063 0)
(8.072 0.000957756 0)
(8.07134 0.000925156 0)
(8.0707 0.000892828 0)
(8.07008 0.000860769 0)
(8.06948 0.000828979 0)
(8.0689 0.000797454 0)
(8.06835 0.000766194 0)
(8.06781 0.000735197 0)
(8.0673 0.000704462 0)
(8.06681 0.000673986 0)
(8.06634 0.00064377 0)
(8.06588 0.000613813 0)
(8.06545 0.000584112 0)
(8.06504 0.000554668 0)
(8.06465 0.00052548 0)
(8.06428 0.000496548 0)
(8.06393 0.00046787 0)
(8.0636 0.000439447 0)
(8.06328 0.000411278 0)
(8.06299 0.000383363 0)
(8.06272 0.000355702 0)
(8.06246 0.000328294 0)
(8.06222 0.00030114 0)
(8.062 0.000274239 0)
(8.0618 0.000247592 0)
(8.06162 0.000221199 0)
(8.06145 0.000195059 0)
(8.06131 0.000169173 0)
(8.06118 0.000143541 0)
(8.06106 0.000118163 0)
(8.06097 9.30395e-05 0)
(8.06089 6.81704e-05 0)
(8.06083 4.35561e-05 0)
(8.06078 1.91965e-05 0)
(8.06075 -4.90782e-06 0)
(8.06074 -2.87571e-05 0)
(8.06074 -5.23508e-05 0)
(8.06076 -7.56891e-05 0)
(8.0608 -9.87716e-05 0)
(8.06085 -0.000121598 0)
(8.06091 -0.000144169 0)
(8.06099 -0.000166485 0)
(8.06109 -0.000188544 0)
(8.0612 -0.000210347 0)
(8.06133 -0.000231895 0)
(8.06147 -0.000253187 0)
(8.06162 -0.000274224 0)
(8.06179 -0.000295005 0)
(8.06197 -0.000315531 0)
(8.06217 -0.000335803 0)
(8.06238 -0.00035582 0)
(8.0626 -0.000375584 0)
(8.06284 -0.000395094 0)
(8.06309 -0.000414351 0)
(8.06335 -0.000433356 0)
(8.06363 -0.000452109 0)
(8.06392 -0.000470611 0)
(8.06422 -0.000488864 0)
(8.06453 -0.000506866 0)
(8.06485 -0.000524621 0)
(8.06519 -0.000542127 0)
(8.06554 -0.000559387 0)
(8.0659 -0.000576402 0)
(8.06627 -0.000593172 0)
(8.06666 -0.000609699 0)
(8.06705 -0.000625984 0)
(8.06746 -0.000642027 0)
(8.06787 -0.000657832 0)
(8.0683 -0.000673398 0)
(8.06874 -0.000688728 0)
(8.06918 -0.000703822 0)
(8.06964 -0.000718682 0)
(8.07011 -0.00073331 0)
(8.07058 -0.000747708 0)
(8.07107 -0.000761876 0)
(8.07157 -0.000775817 0)
(8.07207 -0.000789532 0)
(8.07259 -0.000803024 0)
(8.07311 -0.000816292 0)
(8.07365 -0.000829341 0)
(8.07419 -0.00084217 0)
(8.07474 -0.000854783 0)
(8.0753 -0.00086718 0)
(8.07586 -0.000879364 0)
(8.07644 -0.000891337 0)
(8.07702 -0.0009031 0)
(8.07762 -0.000914656 0)
(8.07821 -0.000926006 0)
(8.07882 -0.000937151 0)
(8.07944 -0.000948096 0)
(8.08006 -0.00095884 0)
(8.08069 -0.000969385 0)
(8.08132 -0.000979735 0)
(8.08196 -0.00098989 0)
(8.08261 -0.000999853 0)
(8.08327 -0.00100962 0)
(8.08393 -0.00101921 0)
(8.0846 -0.0010286 0)
(8.08528 -0.00103782 0)
(8.08596 -0.00104684 0)
(8.08665 -0.00105569 0)
(8.08734 -0.00106436 0)
(8.08804 -0.00107285 0)
(8.08875 -0.00108116 0)
(8.08946 -0.0010893 0)
(8.09017 -0.00109726 0)
(8.0909 -0.00110505 0)
(8.09162 -0.00111268 0)
(8.09236 -0.00112013 0)
(8.09309 -0.00112742 0)
(8.09383 -0.00113455 0)
(8.09458 -0.00114151 0)
(8.09533 -0.0011483 0)
(8.09609 -0.00115494 0)
(8.09685 -0.00116142 0)
(8.09761 -0.00116774 0)
(8.09838 -0.0011739 0)
(8.09916 -0.00117991 0)
(8.09993 -0.00118576 0)
(8.10072 -0.00119146 0)
(8.1015 -0.001197 0)
(8.10229 -0.0012024 0)
(8.10308 -0.00120765 0)
(8.10388 -0.00121274 0)
(8.10468 -0.00121769 0)
(8.10548 -0.00122249 0)
(8.10629 -0.00122715 0)
(8.1071 -0.00123166 0)
(8.10791 -0.00123602 0)
(8.10872 -0.00124024 0)
(8.10954 -0.00124432 0)
(8.11036 -0.00124825 0)
(8.11119 -0.00125205 0)
(8.11201 -0.0012557 0)
(8.11284 -0.00125921 0)
(8.11367 -0.00126258 0)
(8.1145 -0.00126581 0)
(8.11534 -0.0012689 0)
(8.11618 -0.00127186 0)
(8.11702 -0.00127467 0)
(8.11786 -0.00127735 0)
(8.1187 -0.00127989 0)
(8.11955 -0.00128229 0)
(8.12039 -0.00128456 0)
(8.12124 -0.00128669 0)
(8.12209 -0.00128868 0)
(8.12294 -0.00129054 0)
(8.12379 -0.00129227 0)
(8.12465 -0.00129386 0)
(8.1255 -0.00129531 0)
(8.12636 -0.00129663 0)
(8.12721 -0.00129781 0)
(8.12807 -0.00129886 0)
(8.12893 -0.00129978 0)
(8.12979 -0.00130057 0)
(8.13065 -0.00130122 0)
(8.13151 -0.00130174 0)
(8.13237 -0.00130212 0)
(8.13323 -0.00130238 0)
(8.13409 -0.0013025 0)
(8.13495 -0.00130249 0)
(8.13581 -0.00130235 0)
(8.13667 -0.00130208 0)
(8.13753 -0.00130168 0)
(8.13839 -0.00130115 0)
(8.13925 -0.0013005 0)
(8.14011 -0.00129971 0)
(8.14097 -0.0012988 0)
(8.14183 -0.00129776 0)
(8.14269 -0.00129659 0)
(8.14355 -0.0012953 0)
(8.1444 -0.00129388 0)
(8.14526 -0.00129235 0)
(8.14611 -0.00129068 0)
(8.14697 -0.0012889 0)
(8.14782 -0.001287 0)
(8.14867 -0.00128498 0)
(8.14952 -0.00128284 0)
(8.15037 -0.00128058 0)
(8.15122 -0.00127821 0)
(8.15206 -0.00127572 0)
(8.15291 -0.00127313 0)
(8.15375 -0.00127042 0)
(8.15459 -0.00126761 0)
(8.15543 -0.00126469 0)
(8.15627 -0.00126167 0)
(8.1571 -0.00125855 0)
(8.15793 -0.00125532 0)
(8.15877 -0.001252 0)
(8.15959 -0.00124859 0)
(8.16042 -0.00124509 0)
(8.16124 -0.0012415 0)
(8.16207 -0.00123782 0)
(8.16289 -0.00123407 0)
(8.1637 -0.00123023 0)
(8.16452 -0.00122633 0)
(8.16533 -0.00122235 0)
(8.16614 -0.00121831 0)
(8.16694 -0.0012142 0)
(8.16775 -0.00121004 0)
(8.16855 -0.00120582 0)
(8.16935 -0.00120156 0)
(8.17014 -0.00119726 0)
(8.17094 -0.00119292 0)
(8.17173 -0.00118855 0)
(8.17251 -0.00118415 0)
(8.1733 -0.00117973 0)
(8.17408 -0.0011753 0)
(8.17485 -0.00117087 0)
(8.17563 -0.00116643 0)
(8.1764 -0.001162 0)
(8.17717 -0.00115759 0)
(8.17794 -0.0011532 0)
(8.1787 -0.00114884 0)
(8.17946 -0.00114452 0)
(8.18022 -0.00114024 0)
(8.18097 -0.00113602 0)
(8.18172 -0.00113187 0)
(8.18247 -0.00112779 0)
(8.18322 -0.00112379 0)
(8.18396 -0.00111988 0)
(8.1847 -0.00111608 0)
(8.18544 -0.00111239 0)
(8.18617 -0.00110882 0)
(8.1869 -0.00110538 0)
(8.18763 -0.00110208 0)
(8.18836 -0.00109894 0)
(8.18908 -0.00109596 0)
(8.18981 -0.00109315 0)
(8.19053 -0.00109052 0)
(8.19125 -0.00108808 0)
(8.19196 -0.00108584 0)
(8.19268 -0.00108381 0)
(8.19339 -0.001082 0)
(8.19411 -0.00108041 0)
(8.19482 -0.00107905 0)
(8.19553 -0.00107791 0)
(8.19623 -0.00107701 0)
(8.19694 -0.00107632 0)
(8.19765 -0.00107584 0)
(8.19836 -0.00107555 0)
(8.19906 -0.00107541 0)
(8.19977 -0.00107538 0)
(8.20047 -0.00107531 0)
(8.20117 -0.00107528 0)
(8.20189 -0.00107402 0)
(8.20254 -0.00107521 0)
(8.2035 -0.00105946 0)
(9.94546 0.725989 0)
(9.82597 0.524082 0)
(9.67686 0.393795 0)
(9.54203 0.299195 0)
(9.42458 0.23072 0)
(9.32183 0.183517 0)
(9.23371 0.150471 0)
(9.15853 0.126347 0)
(9.09364 0.108289 0)
(9.03704 0.0944979 0)
(8.98724 0.0837017 0)
(8.94304 0.0750486 0)
(8.90345 0.0679778 0)
(8.86771 0.0621027 0)
(8.83522 0.0571482 0)
(8.80549 0.0529156 0)
(8.77814 0.0492589 0)
(8.75283 0.0460687 0)
(8.72932 0.0432612 0)
(8.70738 0.0407714 0)
(8.68683 0.0385481 0)
(8.66753 0.0365506 0)
(8.64933 0.0347459 0)
(8.63213 0.0331071 0)
(8.61583 0.0316122 0)
(8.60035 0.0302427 0)
(8.58561 0.0289834 0)
(8.57156 0.0278211 0)
(8.55813 0.026745 0)
(8.54528 0.0257455 0)
(8.53296 0.0248146 0)
(8.52113 0.0239454 0)
(8.50977 0.0231316 0)
(8.49883 0.0223681 0)
(8.48829 0.0216502 0)
(8.47812 0.0209737 0)
(8.4683 0.0203351 0)
(8.45882 0.0197311 0)
(8.44964 0.019159 0)
(8.44075 0.0186161 0)
(8.43214 0.0181002 0)
(8.42379 0.0176092 0)
(8.41569 0.0171412 0)
(8.40782 0.0166947 0)
(8.40017 0.016268 0)
(8.39274 0.0158599 0)
(8.38551 0.015469 0)
(8.37848 0.0150942 0)
(8.37162 0.0147345 0)
(8.36495 0.014389 0)
(8.35844 0.0140567 0)
(8.35209 0.0137368 0)
(8.3459 0.0134287 0)
(8.33986 0.0131316 0)
(8.33396 0.0128449 0)
(8.3282 0.0125681 0)
(8.32257 0.0123005 0)
(8.31707 0.0120417 0)
(8.3117 0.0117912 0)
(8.30644 0.0115485 0)
(8.3013 0.0113134 0)
(8.29627 0.0110853 0)
(8.29134 0.0108641 0)
(8.28652 0.0106492 0)
(8.2818 0.0104404 0)
(8.27718 0.0102375 0)
(8.27265 0.0100401 0)
(8.26822 0.00984799 0)
(8.26387 0.00966096 0)
(8.25961 0.00947876 0)
(8.25544 0.00930119 0)
(8.25134 0.00912805 0)
(8.24733 0.00895913 0)
(8.24339 0.00879428 0)
(8.23953 0.00863331 0)
(8.23574 0.00847608 0)
(8.23203 0.00832242 0)
(8.22838 0.0081722 0)
(8.2248 0.00802529 0)
(8.22129 0.00788155 0)
(8.21785 0.00774086 0)
(8.21447 0.0076031 0)
(8.21115 0.00746818 0)
(8.20789 0.00733597 0)
(8.20469 0.00720638 0)
(8.20155 0.00707933 0)
(8.19846 0.0069547 0)
(8.19543 0.00683243 0)
(8.19246 0.00671243 0)
(8.18954 0.00659461 0)
(8.18667 0.00647891 0)
(8.18385 0.00636524 0)
(8.18109 0.00625355 0)
(8.17837 0.00614377 0)
(8.1757 0.00603583 0)
(8.17308 0.00592968 0)
(8.17051 0.00582525 0)
(8.16798 0.00572249 0)
(8.1655 0.00562135 0)
(8.16306 0.00552177 0)
(8.16066 0.00542371 0)
(8.15831 0.00532713 0)
(8.156 0.00523197 0)
(8.15374 0.00513819 0)
(8.15151 0.00504576 0)
(8.14933 0.00495462 0)
(8.14718 0.00486475 0)
(8.14507 0.00477611 0)
(8.143 0.00468865 0)
(8.14097 0.00460236 0)
(8.13898 0.00451719 0)
(8.13702 0.00443311 0)
(8.1351 0.0043501 0)
(8.13322 0.00426812 0)
(8.13137 0.00418714 0)
(8.12956 0.00410714 0)
(8.12778 0.0040281 0)
(8.12603 0.00394998 0)
(8.12432 0.00387277 0)
(8.12264 0.00379644 0)
(8.121 0.00372096 0)
(8.11939 0.00364633 0)
(8.1178 0.00357251 0)
(8.11625 0.00349948 0)
(8.11474 0.00342724 0)
(8.11325 0.00335575 0)
(8.11179 0.00328501 0)
(8.11037 0.00321499 0)
(8.10897 0.00314568 0)
(8.1076 0.00307706 0)
(8.10626 0.00300913 0)
(8.10495 0.00294185 0)
(8.10367 0.00287523 0)
(8.10242 0.00280925 0)
(8.1012 0.00274389 0)
(8.1 0.00267914 0)
(8.09883 0.002615 0)
(8.09769 0.00255145 0)
(8.09658 0.00248847 0)
(8.09549 0.00242607 0)
(8.09443 0.00236423 0)
(8.09339 0.00230294 0)
(8.09238 0.0022422 0)
(8.0914 0.00218199 0)
(8.09044 0.0021223 0)
(8.0895 0.00206314 0)
(8.08859 0.00200449 0)
(8.08771 0.00194635 0)
(8.08685 0.00188871 0)
(8.08601 0.00183156 0)
(8.0852 0.0017749 0)
(8.08441 0.00171873 0)
(8.08365 0.00166303 0)
(8.08291 0.00160781 0)
(8.08219 0.00155306 0)
(8.0815 0.00149877 0)
(8.08082 0.00144495 0)
(8.08017 0.00139159 0)
(8.07955 0.00133868 0)
(8.07894 0.00128623 0)
(8.07836 0.00123423 0)
(8.0778 0.00118267 0)
(8.07726 0.00113157 0)
(8.07674 0.0010809 0)
(8.07624 0.00103068 0)
(8.07576 0.0009809 0)
(8.07531 0.000931558 0)
(8.07487 0.000882655 0)
(8.07446 0.000834188 0)
(8.07406 0.000786158 0)
(8.07369 0.000738562 0)
(8.07333 0.000691402 0)
(8.073 0.000644675 0)
(8.07268 0.000598381 0)
(8.07238 0.000552521 0)
(8.07211 0.000507094 0)
(8.07185 0.000462099 0)
(8.07161 0.000417537 0)
(8.07139 0.000373407 0)
(8.07118 0.00032971 0)
(8.071 0.000286445 0)
(8.07083 0.000243613 0)
(8.07068 0.000201214 0)
(8.07055 0.000159247 0)
(8.07043 0.000117713 0)
(8.07033 7.66128e-05 0)
(8.07025 3.59455e-05 0)
(8.07019 -4.28853e-06 0)
(8.07014 -4.40892e-05 0)
(8.07011 -8.34562e-05 0)
(8.0701 -0.00012239 0)
(8.0701 -0.00016089 0)
(8.07012 -0.000198956 0)
(8.07015 -0.000236589 0)
(8.0702 -0.000273788 0)
(8.07026 -0.000310555 0)
(8.07034 -0.000346889 0)
(8.07044 -0.00038279 0)
(8.07055 -0.000418258 0)
(8.07067 -0.000453296 2.74536e-103)
(8.07081 -0.000487902 -2.74525e-103)
(8.07096 -0.000522078 0)
(8.07113 -0.000555824 0)
(8.07131 -0.000589141 0)
(8.0715 -0.00062203 0)
(8.07171 -0.000654492 0)
(8.07193 -0.000686528 0)
(8.07216 -0.00071814 0)
(8.07241 -0.000749328 0)
(8.07267 -0.000780093 0)
(8.07294 -0.000810439 0)
(8.07323 -0.000840365 0)
(8.07353 -0.000869873 0)
(8.07384 -0.000898966 0)
(8.07416 -0.000927645 0)
(8.07449 -0.000955912 0)
(8.07484 -0.000983769 0)
(8.07519 -0.00101122 0)
(8.07556 -0.00103826 0)
(8.07594 -0.0010649 0)
(8.07633 -0.00109114 0)
(8.07673 -0.00111698 0)
(8.07714 -0.00114242 0)
(8.07756 -0.00116747 0)
(8.078 -0.00119213 0)
(8.07844 -0.0012164 0)
(8.07889 -0.00124029 0)
(8.07935 -0.00126379 0)
(8.07982 -0.00128691 0)
(8.0803 -0.00130966 0)
(8.0808 -0.00133203 0)
(8.0813 -0.00135403 0)
(8.0818 -0.00137566 0)
(8.08232 -0.00139693 0)
(8.08285 -0.00141784 0)
(8.08338 -0.00143839 0)
(8.08393 -0.00145858 0)
(8.08448 -0.00147842 0)
(8.08504 -0.00149791 0)
(8.08561 -0.00151705 0)
(8.08618 -0.00153585 0)
(8.08677 -0.00155431 0)
(8.08736 -0.00157244 0)
(8.08796 -0.00159023 0)
(8.08856 -0.00160769 0)
(8.08918 -0.00162483 0)
(8.0898 -0.00164164 0)
(8.09042 -0.00165813 0)
(8.09106 -0.00167431 0)
(8.0917 -0.00169017 0)
(8.09235 -0.00170572 0)
(8.093 -0.00172096 0)
(8.09366 -0.0017359 0)
(8.09432 -0.00175053 0)
(8.095 -0.00176487 0)
(8.09568 -0.00177891 0)
(8.09636 -0.00179265 0)
(8.09705 -0.00180611 0)
(8.09774 -0.00181928 0)
(8.09844 -0.00183216 0)
(8.09915 -0.00184476 0)
(8.09986 -0.00185709 0)
(8.10058 -0.00186913 0)
(8.1013 -0.0018809 0)
(8.10202 -0.0018924 0)
(8.10275 -0.00190363 0)
(8.10349 -0.00191459 0)
(8.10423 -0.00192529 0)
(8.10497 -0.00193572 0)
(8.10572 -0.00194589 0)
(8.10648 -0.00195581 0)
(8.10723 -0.00196547 0)
(8.10799 -0.00197487 0)
(8.10876 -0.00198402 0)
(8.10953 -0.00199292 0)
(8.1103 -0.00200156 0)
(8.11108 -0.00200997 0)
(8.11186 -0.00201812 0)
(8.11264 -0.00202603 0)
(8.11343 -0.0020337 0)
(8.11421 -0.00204112 0)
(8.11501 -0.00204831 0)
(8.1158 -0.00205525 0)
(8.1166 -0.00206196 0)
(8.1174 -0.00206843 0)
(8.11821 -0.00207467 0)
(8.11901 -0.00208067 0)
(8.11982 -0.00208644 0)
(8.12063 -0.00209197 0)
(8.12145 -0.00209728 0)
(8.12227 -0.00210235 0)
(8.12308 -0.00210719 0)
(8.1239 -0.0021118 0)
(8.12473 -0.00211619 0)
(8.12555 -0.00212035 0)
(8.12638 -0.00212427 0)
(8.12721 -0.00212798 0)
(8.12803 -0.00213145 0)
(8.12887 -0.0021347 0)
(8.1297 -0.00213773 0)
(8.13053 -0.00214053 0)
(8.13137 -0.00214311 0)
(8.1322 -0.00214546 0)
(8.13304 -0.00214759 0)
(8.13388 -0.0021495 0)
(8.13472 -0.00215118 0)
(8.13556 -0.00215265 0)
(8.1364 -0.00215389 0)
(8.13724 -0.00215492 0)
(8.13808 -0.00215572 0)
(8.13892 -0.0021563 0)
(8.13977 -0.00215667 0)
(8.14061 -0.00215681 0)
(8.14145 -0.00215674 0)
(8.1423 -0.00215645 0)
(8.14314 -0.00215595 0)
(8.14398 -0.00215523 0)
(8.14483 -0.0021543 0)
(8.14567 -0.00215315 0)
(8.14651 -0.00215179 0)
(8.14736 -0.00215022 0)
(8.1482 -0.00214844 0)
(8.14904 -0.00214645 0)
(8.14988 -0.00214425 0)
(8.15072 -0.00214185 0)
(8.15156 -0.00213924 0)
(8.1524 -0.00213643 0)
(8.15323 -0.00213342 0)
(8.15407 -0.00213021 0)
(8.1549 -0.0021268 0)
(8.15574 -0.00212319 0)
(8.15657 -0.00211939 0)
(8.1574 -0.00211541 0)
(8.15823 -0.00211123 0)
(8.15906 -0.00210687 0)
(8.15988 -0.00210233 0)
(8.16071 -0.00209761 0)
(8.16153 -0.00209271 0)
(8.16235 -0.00208764 0)
(8.16317 -0.0020824 0)
(8.16399 -0.002077 0)
(8.1648 -0.00207144 0)
(8.16562 -0.00206572 0)
(8.16643 -0.00205986 0)
(8.16724 -0.00205384 0)
(8.16804 -0.00204769 0)
(8.16885 -0.0020414 0)
(8.16965 -0.00203498 0)
(8.17045 -0.00202844 0)
(8.17124 -0.00202179 0)
(8.17204 -0.00201502 0)
(8.17283 -0.00200815 0)
(8.17362 -0.00200118 0)
(8.1744 -0.00199413 0)
(8.17519 -0.001987 0)
(8.17597 -0.0019798 0)
(8.17675 -0.00197253 0)
(8.17752 -0.00196521 0)
(8.17829 -0.00195785 0)
(8.17906 -0.00195046 0)
(8.17983 -0.00194304 0)
(8.18059 -0.00193561 0)
(8.18135 -0.00192818 0)
(8.18211 -0.00192076 0)
(8.18286 -0.00191337 0)
(8.18361 -0.00190601 0)
(8.18436 -0.0018987 0)
(8.1851 -0.00189145 0)
(8.18585 -0.00188428 0)
(8.18658 -0.00187719 0)
(8.18732 -0.00187022 0)
(8.18805 -0.00186336 0)
(8.18878 -0.00185664 0)
(8.18951 -0.00185006 0)
(8.19024 -0.00184366 0)
(8.19096 -0.00183743 0)
(8.19168 -0.0018314 0)
(8.19239 -0.00182559 0)
(8.19311 -0.00182001 0)
(8.19382 -0.00181468 0)
(8.19453 -0.00180961 0)
(8.19523 -0.00180482 0)
(8.19594 -0.00180032 0)
(8.19664 -0.00179614 0)
(8.19734 -0.00179227 0)
(8.19804 -0.00178875 0)
(8.19874 -0.00178557 0)
(8.19943 -0.00178274 0)
(8.20013 -0.00178028 0)
(8.20082 -0.00177817 0)
(8.20151 -0.00177641 0)
(8.2022 -0.00177499 0)
(8.20289 -0.00177387 0)
(8.20357 -0.00177301 0)
(8.20426 -0.00177233 0)
(8.20495 -0.00177169 0)
(8.20563 -0.00177099 0)
(8.20632 -0.00176936 0)
(8.20696 -0.00176768 0)
(8.20789 -0.00175452 0)
(9.95588 0.782308 0)
(9.89615 0.625112 0)
(9.80208 0.503553 0)
(9.70137 0.409241 0)
(9.60377 0.335326 0)
(9.51099 0.278481 0)
(9.42517 0.234869 0)
(9.34747 0.200925 0)
(9.2775 0.174174 0)
(9.21448 0.15287 0)
(9.15765 0.135682 0)
(9.10627 0.121619 0)
(9.05963 0.109963 0)
(9.0171 0.100186 0)
(8.97817 0.0918918 0)
(8.94236 0.0847837 0)
(8.9093 0.0786344 0)
(8.87866 0.0732694 0)
(8.85016 0.0685525 0)
(8.82355 0.0643762 0)
(8.79864 0.0606551 0)
(8.77526 0.0573202 0)
(8.75323 0.0543155 0)
(8.73245 0.051595 0)
(8.71278 0.0491209 0)
(8.69414 0.0468614 0)
(8.67642 0.04479 0)
(8.65956 0.0428844 0)
(8.64348 0.0411255 0)
(8.62813 0.0394969 0)
(8.61344 0.0379847 0)
(8.59937 0.0365768 0)
(8.58588 0.0352628 0)
(8.57292 0.0340334 0)
(8.56046 0.0328806 0)
(8.54847 0.0317974 0)
(8.53691 0.0307776 0)