# p  FACE_DATA 11666
# x y z  p
0.0596589 0.0485184 0.00125 -34.0614
0.101562 0.0658665 0.00124988 -60.4162
0.134326 0.0763298 0.00125007 -69.8168
0.0156349 -0.00987769 0.00124999 -32.0047
0.00986925 -0.00870838 0.00875 -53.671
0.015635 -0.00987629 0.00874999 -32.6124
0.0241069 -0.0106137 0.00124999 -22.3942
0.0176922 -0.0101479 0.00874997 -42.5897
0.0241084 -0.0106006 0.00875 -20.9771
0.00763978 -0.00781489 0.00875 -29.6304
0.00249986 0.007756 0.00124998 74.5709
0.00249976 0.00775583 0.00875 74.1853
0.0100541 0.0171346 0.00125 32.9308
0.0100541 0.0171346 0.00875 32.5768
0.0346937 0.0353866 0.00125 -12.4874
0.0346936 0.0353866 0.00875 -12.7868
0.0515461 0.0446016 0.00125 -33.3069
0.0515461 0.0446016 0.00875 -33.5043
0.0596591 0.0485182 0.00875 -34.1802
0.0739278 0.0550046 0.00124997 -44.89
0.0739295 0.0549989 0.00875 -45.9434
0.0761697 0.0559647 0.00125002 -43.356
0.0761716 0.055959 0.00875 -41.7026
0.0992795 0.0650143 0.00125006 -55.99
0.0992798 0.0650141 0.00875 -56.1129
0.124167 0.0734248 0.0012499 -76.2025
0.124168 0.0734247 0.00875 -76.3848
0.126 0.0739553 0.0012501 -77.1243
0.126001 0.0739544 0.00875 -77.3026
0.00348497 -0.00540105 0.00375 -7.45021
0.00348498 -0.00540103 0.00125 -17.1124
0.00390561 0.00991142 0.00125001 67.2418
0.00390554 0.00991136 0.00375001 83.0091
0.0123385 0.0192647 0.00125 27.2053
0.0123385 0.0192647 0.00375 32.9562
0.0285313 0.0316828 0.00375 -15.8731
0.0285313 0.0316828 0.00125 -14.9564
0.0451676 0.0412112 0.00375 -22.3247
0.0618131 0.0495539 0.00374999 -35.982
0.0596589 0.0485185 0.00375001 -34.2254
0.0783681 0.0569126 0.00125 -47.5381
0.0783681 0.0569126 0.00374999 -47.9436
0.0867428 0.0603561 0.00375001 -57.8235
0.101562 0.0658665 0.00375 -60.976
0.103292 0.0664919 0.00124992 -64.8846
0.103292 0.066492 0.00374999 -65.6887
0.111447 0.0692183 0.00375004 -64.8362
0.134325 0.0763333 0.00374992 -70.9985
0.136722 0.0770123 0.00124995 -65.7658
0.136721 0.0770159 0.00375005 -69.2091
0.145051 0.0793848 0.00375008 -72.8488
0.0156347 -0.00987844 0.00375 -40.4254
0.0136076 -0.00949862 0.00125 -34.5413
0.0136076 -0.00949862 0.00375 -43.5263
0.0176912 -0.0101618 0.00374995 -51.9254
0.0197529 -0.0103145 0.00125003 -33.2782
0.0197524 -0.0103197 0.00375004 -43.3995
0.0241068 -0.0106201 0.00374998 -29.9443
0.0217146 -0.0104413 0.00125002 -25.28
0.0217143 -0.0104492 0.00375006 -34.0034
0.0282211 -0.0108018 0.00375 -31.8613
0.0302103 -0.0108156 0.00375 -25.4204
0.0076396 -0.0078153 0.00375001 -32.8256
0.00547024 -0.00679722 0.00125 -48.8125
0.00143952 -0.00309457 0.00125002 31.7834
0.00249975 0.00775596 0.00374998 93.7018
0.0058448 0.0124572 0.00375 65.4582
0.0079031 0.0148477 0.00375 58.3191
0.0100541 0.0171346 0.00375 40.3531
0.0141149 0.0208497 0.00374999 31.3686
0.0201896 0.0257898 0.00125 8.25868
0.0326383 0.0341513 0.00375 -8.79813
0.0346936 0.0353866 0.00375 -12.5361
0.0367466 0.0366202 0.00125 -16.3744
0.0367466 0.0366202 0.00375 -16.9805
0.0515461 0.0446016 0.00374999 -33.4269
0.0531428 0.0453811 0.00125 -35.6183
0.0639772 0.0505932 0.00375 -38.5849
0.0700375 0.053339 0.00125 -41.89
0.0739264 0.0550072 0.00374994 -45.3933
0.0722766 0.0543039 0.00125 -43.0365
0.0761684 0.0559673 0.00375005 -44.9726
0.0805723 0.0578565 0.00125 -49.7944
0.0805723 0.0578565 0.00375 -50.4349
0.0930067 0.0626838 0.00125 -52.8702
0.0952866 0.0635344 0.00125 -55.0367
0.099279 0.0650161 0.00375 -57.2258
0.0969659 0.0641545 0.00125 -56.5336
0.105094 0.0670986 0.0012501 -66.3354
0.105092 0.0671034 0.0037499 -67.2116
0.113773 0.0699913 0.00374998 -62.6835
0.120117 0.072101 0.00374998 -67.0088
0.120118 0.0720993 0.00125 -64.4881
0.124167 0.0734249 0.00375 -77.8651
0.12242 0.0728681 0.00125 -69.6494
0.125998 0.0739606 0.00374987 -77.653
0.128392 0.0746367 0.00125 -65.0496
0.139046 0.0776819 0.00375 -73.0312
0.0156348 -0.00987736 0.00625 -40.7801
0.0136075 -0.00949862 0.00875 -35.0483
0.0136075 -0.00949862 0.00625 -43.8226
0.0176916 -0.0101555 0.00624994 -52.4757
0.0197534 -0.0103035 0.00875 -32.5322
0.0197528 -0.0103122 0.00625 -42.8011
0.0241076 -0.0106114 0.00625002 -29.2477
0.0217161 -0.0104253 0.00874999 -26.3277
0.0217152 -0.0104383 0.00625004 -34.7108
0.0282212 -0.0108018 0.00624999 -32.1369
0.0302103 -0.0108155 0.00625 -25.5634
0.00348497 -0.00540105 0.00625 -7.90757
0.00348498 -0.00540103 0.00875 -17.7362
0.00763959 -0.00781529 0.00625 -33.1226
0.00547019 -0.00679721 0.00875 -49.3287
0.00249971 0.0077559 0.00624999 93.3349
0.00390549 0.00991128 0.00625 82.6759
0.00584477 0.0124572 0.00625 65.1808
0.00790308 0.0148476 0.00875 46.6725
0.0100541 0.0171346 0.00625001 40.1159
0.0123385 0.0192647 0.00624999 32.7133
0.0141149 0.0208497 0.00625001 31.0879
0.0158688 0.0224099 0.00874999 19.2641
0.0182596 0.0243548 0.00874999 4.75291
0.0201895 0.0257898 0.00875 7.85572
0.0285313 0.0316828 0.00625 -16.0196
0.0285313 0.0316829 0.00875 -15.2896
0.0326383 0.0341513 0.00875 -8.93637
0.0346936 0.0353866 0.00625 -12.7089
0.0367466 0.0366202 0.00875 -16.6465
0.0367466 0.0366202 0.00625 -17.1181
0.0409383 0.038949 0.00625 -21.1528
0.0451676 0.0412112 0.00625 -22.4476
0.0451676 0.0412112 0.00875 -21.7673
0.0515461 0.0446016 0.00625 -33.5232
0.0531429 0.0453804 0.00875 -35.8862
0.0553392 0.0464351 0.00875 -29.2764
0.0618131 0.0495539 0.00624999 -36.0876
0.059659 0.0485184 0.00625 -34.2927
0.0639771 0.0505932 0.00625 -38.6849
0.0739276 0.0550035 0.00624998 -46.021
0.0722765 0.0543039 0.00875 -43.3735
0.0761697 0.0559636 0.00625003 -44.2346
0.0867429 0.060356 0.00625 -57.8413
0.0930069 0.0626832 0.00875001 -52.7751
0.0952867 0.0635344 0.00875 -55.2328
0.0992791 0.065016 0.00625 -57.2961
0.096966 0.0641543 0.00875 -56.7649
0.107436 0.0678759 0.00625005 -58.616
0.111447 0.0692181 0.00624994 -65.2518
0.113773 0.0699911 0.00625004 -62.6536
0.120117 0.0721009 0.00625003 -67.0382
0.124167 0.0734248 0.00625009 -77.956
0.122419 0.0728681 0.00875 -69.789
0.125999 0.0739601 0.00624999 -77.7293
0.128392 0.074636 0.00875 -64.9557
0.128391 0.0746415 0.00624997 -67.9692
0.139047 0.0776819 0.00625 -73.4273
0.145051 0.0793845 0.00625001 -72.7798
0.00986926 -0.00870838 0.00124999 -53.2226
0.0076398 -0.00781489 0.00125 -29.1825
0.0176917 -0.0101574 0.00125007 -41.7585
0.000200385 0.00101878 0.00124999 89.1491
0.0265126 0.0304203 0.00125 -11.4655
0.0409383 0.038949 0.00125002 -20.0513
0.0430512 0.0400793 0.00124999 -19.6264
0.0844473 0.0594811 0.00125001 -60.8226
0.109733 0.0686517 0.00125 -61.6385
0.142658 0.0786991 0.00125 -73.9031
0.0264126 -0.0107599 0.00124996 -26.9624
0.0264128 -0.0107599 0.00875 -27.6928
0.00030057 -0.000910135 0.00124996 64.1434
0.000300479 -0.00090986 0.00875 63.4542
0.00143944 -0.00309431 0.00875 31.038
0.000200372 0.00101871 0.00875 88.5877
0.0245666 0.0290269 0.00125 -0.314231
0.0220896 0.0271946 0.00125 7.27114
0.0245669 0.0290265 0.00875 -0.584878
0.0220899 0.0271942 0.00875 6.8741
0.0265126 0.0304203 0.00875 -11.8209
0.0409384 0.0389488 0.00875 -20.2349
0.0430512 0.0400793 0.00875 -19.8721
0.0574973 0.0474804 0.00125 -32.7475
0.055339 0.0464357 0.00125 -29.2593
0.0574975 0.0474802 0.00875 -32.9844
0.082793 0.0588075 0.00124999 -53.0874
0.082793 0.0588075 0.00875 -53.19
0.0844474 0.0594808 0.00875 -60.9629
0.107436 0.0678775 0.00124998 -56.4904
0.101562 0.0658665 0.00875 -60.8025
0.107439 0.067868 0.00875 -53.0862
0.109734 0.0686517 0.00875 -62.9722
0.132483 0.0758129 0.00125 -69.7049
0.132483 0.0758129 0.00875 -70.0704
0.134327 0.0763232 0.00875 -71.2051
0.140815 0.0781855 0.00125 -71.1573
0.140816 0.0781855 0.00875 -71.6832
0.142658 0.0786984 0.00875 -74.1212
0.00986924 -0.00870838 0.00375 -64.6638
0.011654 -0.00912788 0.00125001 -51.2582
0.0116539 -0.00912788 0.00374999 -63.3376
0.000200379 0.00101875 0.00374999 120.492
0.0013868 0.00543825 0.00125 87.8383
0.000586819 0.00298345 0.00125 93.0346
0.000586809 0.0029834 0.00375 120.462
0.0158685 0.0224104 0.00124999 19.6642
0.0182592 0.0243553 0.00125003 5.01308
0.0158681 0.0224108 0.00375001 23.8744
0.0182589 0.0243556 0.00374999 6.30071
0.0265126 0.0304203 0.00374999 -11.1221
0.0430512 0.0400793 0.00375 -20.4091
0.0409382 0.0389491 0.00375 -21.0656
0.0451676 0.0412112 0.00125 -21.5412
0.0618131 0.0495539 0.00125 -35.7013
0.0700363 0.0533415 0.00375 -43.5773
0.0677828 0.0523723 0.00125 -50.6492
0.0677816 0.0523749 0.00374999 -49.4536
0.0844463 0.0594837 0.00375001 -60.3326
0.0867438 0.0603536 0.00125 -56.5666
0.109733 0.0686517 0.00375 -64.1561
0.107435 0.0678823 0.00375006 -60.3674
0.111448 0.0692157 0.00125 -62.672
0.117778 0.0713216 0.00125 -65.25
0.117778 0.0713233 0.00375003 -66.2113
0.142656 0.0787041 0.00374996 -74.5925
0.145053 0.0793798 0.00125 -69.9139
0.0264127 -0.0107599 0.00374998 -34.4762
0.0282212 -0.0108018 0.00125 -25.3945
0.0302103 -0.0108155 0.00125 -20.3656
0.00547002 -0.00679765 0.00374999 -50.9322
0.00143948 -0.00309443 0.00375002 55.8372
0.000300522 -0.00090999 0.00374997 95.9956
0.00138673 0.00543826 0.00375 109.885
0.00584483 0.0124572 0.00125 53.4109
0.00790312 0.0148477 0.00125 47.0435
0.014115 0.0208496 0.00125 25.0872
0.0201895 0.0257898 0.00374999 10.0691
0.0220894 0.0271949 0.00375001 9.0664
0.0245664 0.0290271 0.00375 1.23267
0.0305852 0.0329173 0.00375 -9.40943
0.0326383 0.0341513 0.00125 -8.64697
0.0305852 0.0329173 0.00125 -8.58004
0.0388237 0.0378181 0.00124998 -24.4985
0.0388236 0.0378182 0.00375 -25.3777
0.0472819 0.042342 0.00375 -24.7377
0.0493989 0.0434742 0.00125 -27.3209
0.0493989 0.0434743 0.00375001 -27.6348
0.0472819 0.042342 0.00125 -24.0548
0.053141 0.0453847 0.00374996 -35.66
0.0553372 0.0464394 0.00375002 -31.0443
0.0574973 0.0474805 0.00374999 -32.7673
0.0639772 0.0505932 0.00125 -38.3908
0.0661609 0.0516418 0.00125 -42.3022
0.0661609 0.0516419 0.00375 -42.2121
0.0722765 0.0543039 0.00374998 -43.767
0.082793 0.0588075 0.00375 -53.7972
0.0890204 0.0612055 0.00374999 -54.2239
0.0906999 0.0618265 0.00125 -54.1287
0.0906997 0.0618269 0.00375 -54.5071
0.0890204 0.0612055 0.00125 -53.859
0.0930065 0.0626842 0.00375001 -54.2506
0.0952866 0.0635343 0.00374999 -56.1406
0.0969653 0.0641562 0.00375 -57.0668
0.113774 0.0699888 0.00125 -59.9711
0.116073 0.0707587 0.00125 -63.8644
0.116073 0.0707587 0.00375 -64.8832
0.12242 0.0728681 0.00375 -71.7729
0.128391 0.0746419 0.00375006 -67.9979
0.132483 0.0758129 0.00375 -70.776
0.130713 0.075309 0.00125 -70.3389
0.130714 0.075309 0.00375 -70.6883
0.140816 0.0781856 0.00375 -73.3305
0.139046 0.0776818 0.00125 -70.5938
0.147379 0.080025 0.00374988 -82.5077
0.149162 0.0804761 0.00125 -75.9231
0.149162 0.080476 0.00375 -77.2664
0.147379 0.0800251 0.00125 -82.2715
0.0264128 -0.0107599 0.00625001 -34.7639
0.0282212 -0.0108017 0.00875 -26.1429
0.0302103 -0.0108155 0.00875 -20.7301
0.00986925 -0.00870838 0.00625 -64.8928
0.0116539 -0.00912788 0.00875 -51.727
0.0116539 -0.00912788 0.00625 -63.5482
0.00547 -0.00679764 0.00625 -51.3033
0.00143945 -0.00309434 0.00625001 55.2702
0.000300489 -0.000909893 0.00624999 95.4008
0.000200374 0.00101872 0.00625 119.959
0.00138678 0.00543818 0.00875 87.4318
0.000586798 0.00298335 0.00875 92.5445
0.00138672 0.00543824 0.00625 109.481
0.000586801 0.00298336 0.00625 119.99
0.00390549 0.00991123 0.00875 66.8486
0.00584478 0.0124572 0.00875 53.0535
0.00790308 0.0148477 0.00624999 58.0364
0.0123384 0.0192647 0.00875 26.8189
0.0158684 0.0224104 0.00625 23.6143
0.0141149 0.0208496 0.00875 24.6732
0.0182593 0.0243552 0.00625 6.16606
0.0201895 0.0257898 0.00624999 9.83171
0.0220896 0.0271946 0.00625001 8.83726
0.0245666 0.0290269 0.00625 1.08489
0.0265127 0.0304203 0.00625 -11.3027
0.0305852 0.0329173 0.00625 -9.58174
0.0326383 0.0341513 0.00625 -8.95944
0.0305852 0.0329173 0.00875 -8.91646
0.0388238 0.0378178 0.00875 -24.7728
0.0388237 0.0378181 0.00625 -25.5025
0.0430512 0.0400793 0.00625 -20.5419
0.0472819 0.042342 0.00625 -24.8659
0.049399 0.0434743 0.00875 -27.5197
0.049399 0.0434742 0.00625 -27.7483
0.0472819 0.042342 0.00875 -24.2682
0.053141 0.0453844 0.00625 -35.7837
0.0553373 0.0464391 0.00625001 -31.0787
0.0574974 0.0474803 0.00625 -32.8879
0.0618132 0.0495539 0.00875 -35.881
0.0639771 0.0505931 0.00875 -38.5565
0.0661609 0.0516419 0.00874999 -42.479
0.066161 0.0516419 0.00625 -42.3163
0.0700363 0.0533413 0.00625001 -43.6691
0.0677828 0.052372 0.00875001 -50.8837
0.0677817 0.0523748 0.00624999 -49.5524
0.0700375 0.0533386 0.00875 -42.0474
0.0722764 0.0543039 0.00625 -43.9512
0.0783681 0.0569126 0.00875 -48.1572
0.0783681 0.0569126 0.00625 -48.1191
0.0805723 0.0578565 0.00875 -50.2427
0.0805723 0.0578565 0.00625 -50.6309
0.082793 0.0588075 0.00625 -53.8671
0.0844464 0.0594835 0.00624997 -60.3999
0.0867439 0.0603532 0.00875 -56.5931
0.0890205 0.0612055 0.00625 -54.3
0.0907001 0.0618259 0.00874999 -54.3649
0.0906999 0.0618264 0.00625 -54.6497
0.0890204 0.0612055 0.00875 -54.0093
0.0930067 0.0626838 0.00625 -54.1816
0.0952866 0.0635343 0.00625 -56.2283
0.0969653 0.0641562 0.00625 -57.1824
0.101562 0.0658665 0.00625 -61.2048
0.103292 0.0664918 0.00874999 -65.3512
0.103292 0.0664919 0.00625 -65.9758
0.105096 0.0670889 0.00875001 -68.2861
0.105094 0.067097 0.00624998 -68.4152
0.109733 0.0686517 0.00625 -64.6628
0.111447 0.0692154 0.00875 -63.5178
0.113773 0.0699884 0.00875 -59.863
0.116073 0.0707587 0.00875 -64.0403
0.116073 0.0707587 0.00625 -64.9447
0.117778 0.0713215 0.00875 -65.4599
0.117778 0.0713233 0.00624996 -66.3026
0.120118 0.0720992 0.00875 -64.5398
0.12242 0.0728681 0.00625 -71.8375
0.132483 0.0758129 0.00625 -70.9937
0.130713 0.075309 0.00875 -70.7249
0.130713 0.0753091 0.00625 -70.8883
0.134326 0.0763288 0.00624998 -71.888
0.136724 0.0770058 0.00875 -63.3482
0.136722 0.0770114 0.00625004 -67.9106
0.140816 0.0781855 0.00625 -73.606
0.139046 0.0776819 0.00875 -71.5634
0.142656 0.0787038 0.00625 -74.7097
0.145053 0.0793791 0.00875 -69.7675
0.14738 0.0800251 0.00625 -82.5615
0.149162 0.080476 0.00875 -76.0973
0.149162 0.0804761 0.00625 -77.3437
0.14738 0.080025 0.00875 -82.4216
0.0490523 -0.010642 0.00125001 3.02518
0.049052 -0.010642 0.00874999 1.12352
0.0490521 -0.010642 0.00375001 -4.71864
0.046909 -0.0106865 0.00374992 -4.12365
0.049052 -0.010642 0.00625001 -11.6962
0.0469091 -0.0106865 0.00875 1.06525
0.0469091 -0.0106865 0.00624997 -6.29859
0.551041 0.00119257 0 27.7542
0.559375 0.00119249 0 28.1332
0.567708 0.00119252 0 28.4948
0.567708 0.0107194 0 29.0037
0.576042 0.00119259 0 28.8314
0.576041 0.0107218 0 29.3279
0.576021 0.0204946 0 29.7269
0.584375 0.00119258 0 29.1516
0.584374 0.0107217 0 29.6542
0.584355 0.0205525 0 29.9967
0.592709 0.00119253 0 29.4591
0.592708 0.0107159 0 29.9747
0.592705 0.0202704 0 30.275
0.551041 0.00119257 0.01 27.7543
0.559375 0.0011925 0.01 28.1306
0.567708 0.00119252 0.01 28.4912
0.567708 0.0107193 0.01 28.9937
0.576042 0.0011926 0.01 28.8295
0.576041 0.0107217 0.01 29.3298
0.576024 0.020507 0.01 29.7178
0.584375 0.00119259 0.01 29.1529
0.584374 0.0107215 0.01 29.6632
0.584355 0.0205506 0.01 30.0386
0.592709 0.00119254 0.01 29.4597
0.592708 0.0107159 0.01 29.9765
0.592705 0.0202704 0.01 30.2303
0.551041 -0.00114394 0 27.5931
0.557292 -0.00114396 0 27.8759
0.559375 -0.00114396 0 27.969
0.565625 -0.00114396 0 28.2394
0.567708 -0.00114396 0 28.3277
0.573959 -0.00114412 0 28.5815
0.573955 0.0204681 0 29.4651
0.576041 -0.00114412 0 28.6645
0.582292 -0.00114412 0 28.9059
0.582273 0.0205724 0 29.9845
0.584375 -0.00114412 0 28.9852
0.590625 -0.00114413 0 29.2163
0.590744 0.0263698 0 30.2025
0.590616 0.0203182 0 30.198
0.592708 -0.00114414 0 29.2924
0.592779 0.026369 0 30.4816
0.557292 -0.00114383 0.01 27.8743
0.551041 -0.0011438 0.01 27.5937
0.565625 -0.00114382 0.01 28.2361
0.559375 -0.00114383 0.01 27.9672
0.573959 -0.00114387 0.01 28.579
0.567708 -0.00114382 0.01 28.3247
0.57395 0.0204816 0.01 29.5189
0.582292 -0.00114387 0.01 28.9054
0.576041 -0.00114387 0.01 28.6628
0.582274 0.0205703 0.01 29.9718
0.590625 -0.00114389 0.01 29.2161
0.584375 -0.00114387 0.01 28.9854
0.590616 0.0203179 0.01 30.1737
0.590748 0.0263839 0.01 30.3683
0.592708 -0.00114389 0.01 29.2923
0.592771 0.0263899 0.01 30.2562
0.576042 0.00833589 0 29.217
0.582291 0.00833604 0 29.4613
0.582291 0.00119259 0 29.0731
0.584375 0.00833572 0 29.5425
0.590625 0.00833435 0 29.7816
0.590625 0.00119254 0 29.3839
0.592708 0.00833392 0 29.8601
0.582291 0.0011926 0.01 29.0737
0.582291 0.00833598 0.01 29.4658
0.576042 0.00833583 0.01 29.2165
0.590625 0.00119255 0.01 29.3843
0.590625 0.00833432 0.01 29.7847
0.584375 0.00833567 0.01 29.5477
0.592708 0.00833391 0.01 29.8609
0.573942 0.0250296 0 29.8144
0.571869 0.0248846 0 29.5036
0.578125 -0.00114366 0 28.7462
0.578125 -0.00309124 0 28.5871
0.576041 -0.00309272 0 28.507
0.582292 -0.00309272 0 28.7451
0.580209 -0.00309124 0 28.6659
0.580209 -0.00114366 0 28.8263
0.578093 0.025177 0 29.8162
0.576016 0.0251248 0 29.5944
0.582275 0.0254495 0 30.1219
0.58016 0.0253227 0 29.5822
0.586458 -0.00114367 0 29.0633
0.586458 -0.00309125 0 28.8999
0.584375 -0.00309273 0 28.8236
0.590625 -0.00309273 0 29.0506
0.588542 -0.00309125 0 28.9748
0.588542 -0.00114368 0 29.1399
0.586364 0.0254581 0 29.8859
0.584312 0.0254866 0 29.6602
0.590633 0.0248887 0 30.2567
0.588415 0.0252343 0 30.4211
0.588893 0.0264646 0 30.4514
0.594791 -0.00114369 0 29.3671
0.594791 -0.00309125 0 29.1986
0.592708 -0.00309273 0 29.1257
0.596875 -0.00309125 0 29.2699
0.596875 -0.00114369 0 29.4402
0.592726 0.0247326 0 30.4315
0.551041 0.00833624 0 28.1059
0.557291 0.00833409 0 28.4038
0.557292 0.00119249 0 28.0398
0.559375 0.00833412 0 28.5056
0.565625 0.00833479 0 28.7936
0.565625 0.00119251 0 28.4073
0.567709 0.00833504 0 28.8837
0.573958 0.00833581 0 29.1363
0.573958 0.00119259 0 28.7496
0.567704 0.0179395 0 29.3382
0.573952 0.0179734 0 29.4977
0.573958 0.0107211 0 29.2494
0.576042 0.0035717 0 28.9703
0.578125 0.00357171 0 29.0522
0.578125 0.00119257 0 28.913
0.576035 0.017984 0 29.5984
0.582284 0.0180013 0 29.8464
0.582291 0.0107224 0 29.5718
0.576024 0.0229785 0 29.705
0.578099 0.0230199 0 29.6091
0.578119 0.0205171 0 29.6117
0.584375 0.00357169 0 29.2929
0.586458 0.00357164 0 29.3721
0.586459 0.00119255 0 29.23
0.584367 0.0179915 0 29.9374
0.590621 0.0178984 0 30.1727
0.590625 0.0107171 0 29.8955
0.584345 0.0231664 0 29.8706
0.586414 0.0230751 0 30.1733
0.586437 0.0204932 0 30.0926
0.592708 0.0035715 0 29.6045
0.594791 0.00357147 0 29.6808
0.594792 0.0011925 0 29.5342
0.592707 0.0178763 0 30.2554
0.592696 0.0226206 0 30.4079
0.557292 0.0011925 0.01 28.0375
0.557291 0.00833407 0.01 28.3943
0.551041 0.00833618 0.01 28.1027
0.565625 0.00119251 0.01 28.4029
0.565625 0.00833475 0.01 28.785
0.559375 0.0083341 0.01 28.4958
0.573958 0.00119259 0.01 28.7466
0.573958 0.00833575 0.01 29.1338
0.567709 0.008335 0.01 28.876
0.573958 0.010721 0.01 29.2482
0.573952 0.0179726 0.01 29.5026
0.567704 0.0179389 0.01 29.3134
0.578125 0.00119258 0.01 28.9122
0.578125 0.0035717 0.01 29.0518
0.576042 0.00357169 0.01 28.9685
0.582291 0.0107223 0.01 29.58
0.582284 0.0180004 0.01 29.8578
0.576035 0.0179831 0.01 29.6012
0.578114 0.0205298 0.01 29.7011
0.578102 0.0230407 0.01 29.6999
0.576024 0.022987 0.01 29.802
0.586459 0.00119256 0.01 29.2315
0.586458 0.00357164 0.01 29.3745
0.584375 0.00357168 0.01 29.2952
0.590625 0.0107171 0.01 29.901
0.590621 0.0178981 0.01 30.1725
0.584367 0.0179906 0.01 29.9541
0.586437 0.0204916 0.01 30.1832
0.586411 0.0231199 0.01 30.3395
0.584351 0.0231886 0.01 29.9493
0.594792 0.00119251 0.01 29.5341
0.594791 0.00357147 0.01 29.6804
0.592708 0.0035715 0.01 29.6053
0.592707 0.0178762 0.01 30.2368
0.5927 0.0226377 0.01 30.3107
0.553125 -0.00114371 0 27.6884
0.553125 -0.00309131 0 27.5458
0.551041 -0.0030926 0 27.4529
0.557292 -0.00309261 0 27.7304
0.555209 -0.00309131 0 27.6378
0.555209 -0.00114372 0 27.7827
0.561458 -0.00114373 0 28.0607
0.561458 -0.00309131 0 27.9114
0.559375 -0.00309261 0 27.8223
0.565625 -0.00309261 0 28.0875
0.563542 -0.00309131 0 27.999
0.563542 -0.00114372 0 28.1506
0.569791 -0.00114372 0 28.4139
0.569791 -0.00309131 0 28.259
0.567708 -0.00309261 0 28.1748
0.573959 -0.00309273 0 28.4248
0.571875 -0.00309125 0 28.3416
0.571875 -0.00114367 0 28.4981
0.571856 0.020444 0 29.6437
0.571871 0.022848 0 29.6307
0.573942 0.0229232 0 29.6311
0.580191 0.0205658 0 29.7924
0.580192 0.0231514 0 29.6149
0.582254 0.0231967 0 30.2417
0.588524 0.0204022 0 30.1861
0.588506 0.0229095 0 30.3813
0.590606 0.0227487 0 30.2931
0.555209 -0.00114359 0.01 27.7822
0.555209 -0.00309047 0.01 27.6385
0.557292 -0.00309177 0.01 27.7294
0.551041 -0.00309176 0.01 27.4536
0.553125 -0.00309047 0.01 27.5471
0.553125 -0.00114358 0.01 27.6887
0.563542 -0.00114359 0.01 28.1479
0.563542 -0.00309047 0.01 27.9976
0.565625 -0.00309177 0.01 28.0848
0.559375 -0.00309177 0.01 27.821
0.561458 -0.00309047 0.01 27.9106
0.561458 -0.00114359 0.01 28.0587
0.571875 -0.00114353 0.01 28.4957
0.571875 -0.00309041 0.01 28.3401
0.573959 -0.00309178 0.01 28.4225
0.567708 -0.00309177 0.01 28.1724
0.569791 -0.00309047 0.01 28.2576
0.569791 -0.00114358 0.01 28.4115
0.573941 0.0229322 0.01 29.5732
0.571866 0.0228715 0.01 29.592
0.57186 0.020457 0.01 29.607
0.571866 0.0249236 0.01 29.5709
0.573942 0.0250429 0.01 29.4706
0.580209 -0.00114352 0.01 28.8258
0.580209 -0.00309041 0.01 28.6654
0.582292 -0.00309178 0.01 28.744
0.576041 -0.00309178 0.01 28.5056
0.578125 -0.00309041 0.01 28.5869
0.578125 -0.00114352 0.01 28.7455
0.582258 0.0231803 0.01 30.0879
0.580188 0.0231388 0.01 29.6896
0.580191 0.0205637 0.01 29.8296
0.580165 0.0253423 0.01 29.7282
0.582266 0.0254528 0.01 29.8018
0.576014 0.025138 0.01 29.9557
0.578092 0.0252146 0.01 29.8415
0.588542 -0.00114354 0.01 29.1405
0.588542 -0.00309041 0.01 28.9753
0.590625 -0.00309179 0.01 29.05
0.584375 -0.00309178 0.01 28.8233
0.586458 -0.00309041 0.01 28.9006
0.586458 -0.00114353 0.01 29.0641
0.590606 0.0227486 0.01 30.2143
0.5885 0.02293 0.01 30.4665
0.588524 0.0204013 0.01 30.2309
0.588891 0.0265043 0.01 30.3162
0.588419 0.0252804 0.01 30.4705
0.590628 0.024901 0.01 30.0773
0.584305 0.0255289 0.01 30.0681
0.586363 0.0255338 0.01 29.9898
0.596875 -0.00114355 0.01 29.439
0.596875 -0.00309041 0.01 29.2691
0.592708 -0.00309179 0.01 29.1253
0.594791 -0.00309041 0.01 29.1986
0.594791 -0.00114354 0.01 29.3669
0.592723 0.0247675 0.01 30.2942
0.578125 0.00833593 0 29.2984
0.578125 0.00595326 0 29.1836
0.576042 0.00595322 0 29.1019
0.582291 0.00595326 0 29.3456
0.580209 0.00595328 0 29.2652
0.580208 0.00833619 0 29.3801
0.580208 0.00119257 0 28.9939
0.580209 0.00357172 0 29.1338
0.582291 0.00357171 0 29.2138
0.586458 0.00833551 0 29.6234
0.586458 0.00595306 0 29.5051
0.584375 0.00595319 0 29.4255
0.590625 0.00595272 0 29.662
0.588541 0.00595289 0 29.5841
0.588541 0.00833488 0 29.7029
0.588541 0.00119254 0 29.3077
0.588541 0.00357159 0 29.451
0.590625 0.00357154 0 29.5283
0.594791 0.00833366 0 29.9389
0.594791 0.0059525 0 29.8165
0.592708 0.00595259 0 29.7393
0.596875 0.00595246 0 29.8928
0.596875 0.00833354 0 30.0171
0.596875 0.00119249 0 29.6086
0.596875 0.00357145 0 29.7566
0.582291 0.0035717 0.01 29.2152
0.580208 0.0035717 0.01 29.1344
0.580208 0.00119258 0.01 28.9938
0.580208 0.00833613 0.01 29.3834
0.580209 0.00595326 0.01 29.267
0.582291 0.00595323 0.01 29.3485
0.576042 0.0059532 0.01 29.1007
0.578125 0.00595324 0.01 29.1841
0.578125 0.00833587 0.01 29.3
0.590625 0.00357154 0.01 29.5294
0.588541 0.00357159 0.01 29.4526
0.588541 0.00119255 0.01 29.3085
0.588541 0.00833484 0.01 29.7075
0.588541 0.00595288 0.01 29.5874
0.590625 0.00595271 0.01 29.6644
0.584375 0.00595316 0.01 29.4291
0.586458 0.00595304 0.01 29.5089
0.586458 0.00833546 0.01 29.6285
0.596875 0.00357146 0.01 29.7542
0.596875 0.0011925 0.01 29.6068
0.596875 0.00833354 0.01 30.0128
0.596875 0.00595246 0.01 29.8904
0.592708 0.00595258 0.01 29.7405
0.594791 0.0059525 0.01 29.816
0.594791 0.00833365 0.01 29.937
0.101093 -0.00919501 0 0.104777
0.109385 -0.00876016 0 3.08864
0.117693 -0.00822008 0 5.00657
0.125998 -0.00774877 0 5.63162
0.134271 -0.00743849 0 5.91191
0.142702 -0.00798999 0 7.3257
0.151032 -0.00777377 0 7.62698
0.15934 -0.00740347 0 8.17065
0.16766 -0.00718291 0 8.2268
0.176018 -0.0076363 0 8.98871
0.184371 -0.00773988 0 9.58102
0.192684 -0.00761805 0 10.0167
0.201019 -0.00747914 0 10.3178
0.209366 -0.00775086 0 10.5388
0.217709 -0.00781607 0 11.2303
0.226037 -0.00774777 0 11.6743
0.234365 -0.00767837 0 12.1453
0.242699 -0.00770513 0 12.5445
0.243053 0.000406878 0 13.5401
0.251052 0.000560668 0 12.9465
0.1011 -0.00917048 0.01 0.889938
0.109395 -0.00873816 0.01 3.95775
0.117702 -0.00820226 0.01 5.93339
0.126007 -0.00773453 0.01 6.49391
0.134278 -0.00743684 0.01 6.82565
0.142732 -0.00800059 0.01 7.40509
0.151044 -0.00775151 0.01 7.8384
0.159347 -0.00741766 0.01 8.26485
0.167674 -0.00718652 0.01 8.54472
0.176018 -0.00763619 0.01 9.07606
0.184371 -0.00773948 0.01 9.75287
0.19269 -0.00760616 0.01 10.1571
0.201025 -0.00749327 0.01 10.4917
0.209366 -0.00775008 0.01 10.8129
0.217709 -0.00781477 0.01 11.2884
0.226037 -0.0077472 0.01 11.6318
0.234366 -0.0076789 0.01 12.0298
0.242699 -0.00770661 0.01 12.4014
0.243052 0.000433816 0.01 12.6857
0.251056 0.000558977 0.01 13.926
0.0490424 -0.0108272 0 3.02518
0.0508621 -0.0108253 0 6.69127
0.0991799 -0.00934788 0 -2.09791
0.107352 -0.00884906 0 2.30087
0.115657 -0.008354 0 3.5454
0.123959 -0.00786462 0 4.51274
0.132264 -0.00745458 0 5.17697
0.140649 -0.00797115 0 6.53511
0.148968 -0.00785052 0 7.59547
0.157287 -0.00749534 0 7.90474
0.165587 -0.00720717 0 8.66111
0.173912 -0.00744952 0 9.06957
0.182286 -0.00776731 0 9.46295
0.190609 -0.00762927 0 9.8658
0.198946 -0.0075188 0 10.3229
0.207644 -0.00210182 0 10.1729
0.207267 -0.00765824 0 10.6143
0.209519 -0.00221416 0 9.54857
0.215651 -0.00194939 0 11.5319
0.215621 -0.00782621 0 11.2265
0.217738 -0.00183307 0 11.2481
0.22395 -0.00146597 0 11.4336
0.22395 -0.00776587 0 11.5777
0.226043 -0.00134317 0 11.5994
0.232247 -0.000976902 0 12.1648
0.232279 -0.00769406 0 12.0305
0.234318 -0.000808545 0 12.182
0.240509 -0.00051347 0 12.5179
0.24061 -0.0076827 0 12.4801
0.242594 -0.000824798 0 13.7897
0.248967 -0.00125271 0 12.5872
0.248953 -0.00770848 0 12.599
0.249009 0.000444598 0 12.9827
0.257303 0.000919451 0 13.4202
0.0490354 -0.0108178 0.01 1.12352
0.050926 -0.0110853 0.01 6.04647
0.0991641 -0.00931944 0.01 -4.31674
0.107341 -0.00882798 0.01 2.51447
0.115645 -0.00833542 0.01 3.93819
0.123947 -0.00784961 0.01 4.83165
0.132255 -0.00745328 0.01 5.49233
0.140646 -0.00798151 0.01 6.39321
0.148952 -0.0078277 0.01 7.3656
0.157265 -0.00751084 0.01 7.96344
0.165587 -0.00720733 0.01 8.35935
0.173903 -0.00742945 0.01 9.3007
0.182286 -0.00776661 0.01 9.52372
0.190609 -0.00763015 0.01 9.9225
0.198936 -0.00751944 0.01 10.325
0.207267 -0.00765835 0.01 10.8522
0.207643 -0.00206472 0.01 11.1274
0.215622 -0.00782484 0.01 11.2537
0.215652 -0.00193307 0.01 12.3581
0.209519 -0.00217962 0.01 9.82468
0.22395 -0.00776516 0.01 11.5379
0.223954 -0.00146724 0.01 12.246
0.217737 -0.00182164 0.01 10.7296
0.232279 -0.00769441 0.01 11.9296
0.23225 -0.000975793 0.01 12.805
0.226039 -0.00134427 0.01 10.9199
0.24061 -0.0076837 0.01 12.3258
0.24051 -0.00050965 0.01 12.7811
0.234323 -0.000824955 0.01 11.2579
0.248953 -0.00770863 0.01 12.5581
0.248967 -0.00127208 0.01 12.664
0.242587 -0.000801247 0.01 13.1683
0.249004 0.000443278 0.01 12.5289
0.257297 0.000937908 0.01 12.6644
0.251039 -0.00768908 0 12.7317
0.259353 -0.0076036 0 14.0931
0.259354 0.00104857 0 13.2004
0.267648 0.00152319 0 13.4124
0.275901 0.00156015 0 14.0746
0.284378 0.00113572 0 13.9075
0.292684 0.00143044 0 14.3574
0.301005 0.00169748 0 14.7336
0.309343 0.00131469 0 14.9844
0.317702 0.00129626 0 15.5996
0.326025 0.0014339 0 15.8563
0.33435 0.00150064 0 16.1853
0.342703 0.00124079 0 16.3956
0.351037 0.00125809 0 17.203
0.359365 0.00131653 0 17.6939
0.367699 0.00126603 0 18.0841
0.36806 0.00983151 0 18.6368
0.37604 0.0012077 0 18.36
0.376061 0.0100133 0 18.4522
0.384372 0.00123079 0 18.8126
0.38435 0.0106087 0 18.8478
0.392704 0.00124091 0 19.2668
0.392636 0.0110897 0 19.0788
0.40104 0.00120163 0 19.6482
0.401054 0.0105018 0 19.0505
0.409374 0.00120106 0 20.1331
0.409368 0.0107882 0 20.1504
0.417707 0.00121028 0 20.6181
0.417675 0.0111174 0 20.7114
0.42604 0.00120297 0 21.0823
0.425975 0.011015 0 21.8522
0.434375 0.00119364 0 21.5306
0.434364 0.0107562 0 21.8748
0.442708 0.00119964 0 22.0043
0.442687 0.0109001 0 22.2289
0.451041 0.00121353 0 22.4741
0.451017 0.0110045 0 22.7107
0.459374 0.0012282 0 22.9509
0.459371 0.0107585 0 23.0264
0.467707 0.00124459 0 23.4615
0.467704 0.0107775 0 23.7491
0.476041 0.00121869 0 23.9008
0.476032 0.0108386 0 24.2286
0.484375 0.00119596 0 24.2725
0.484364 0.010829 0 24.6765
0.492708 0.00119304 0 24.7065
0.492707 0.0107364 0 24.9863
0.492737 0.0195073 0 25.0234
0.501042 0.00119307 0 25.1852
0.501039 0.0107518 0 25.5423
0.501021 0.020069 0 25.779
0.509375 0.00119327 0 25.6525
0.509371 0.0107689 0 26.0167
0.509317 0.0205648 0 26.0005
0.517708 0.00119281 0 26.0989
0.517706 0.0107338 0 26.4546
0.517704 0.0201406 0 26.2637
0.526041 0.00119257 0 26.5363
0.526041 0.0107215 0 26.932
0.526044 0.0201611 0 27.1967
0.534375 0.00119267 0 26.9612
0.534374 0.0107304 0 27.3938
0.534357 0.0204546 0 27.6771
0.542708 0.00119272 0 27.3657
0.542707 0.0107359 0 27.8123
0.542681 0.020781 0 28.0891
0.551041 0.0107221 0 28.2003
0.551013 0.020336 0 28.5204
0.559375 0.0107163 0 28.6194
0.559365 0.0202704 0 29.0893
0.567699 0.0204213 0 29.4364
0.251039 -0.00768915 0.01 12.721
0.259353 -0.00760366 0.01 14.0984
0.259362 0.00105841 0.01 14.0352
0.267646 0.00156159 0.01 14.1085
0.275918 0.00155904 0.01 14.7351
0.284378 0.001143 0.01 14.2142
0.292689 0.00143669 0.01 14.511
0.301006 0.00169893 0.01 14.7924
0.309348 0.00133215 0.01 14.8651
0.317702 0.00129567 0.01 15.6429
0.326025 0.00143218 0.01 15.925
0.33435 0.00149862 0.01 16.28
0.342704 0.00124073 0.01 16.382
0.351037 0.00125771 0.01 17.1357
0.359365 0.00131575 0.01 17.6073
0.3677 0.00126553 0.01 18.0271
0.368058 0.00986982 0.01 18.3762
0.37604 0.00120756 0.01 18.3801
0.376066 0.0100695 0.01 19.1804
0.384372 0.00123045 0.01 18.829
0.384355 0.010609 0.01 19.41
0.392704 0.00124049 0.01 19.269
0.392627 0.0111439 0.01 19.6285
0.401041 0.00120159 0.01 19.6473
0.401061 0.0105192 0.01 19.3404
0.409374 0.00120091 0.01 20.145
0.409368 0.0107929 0.01 20.3291