/*--------------------------------*- C++ -*----------------------------------*\
| =========                 |                                                 |
| \\      /  F ield         | OpenFOAM: The Open Source CFD Toolbox           |
|  \\    /   O peration     | Version:  2506                                  |
|   \\  /    A nd           | Website:  www.openfoam.com                      |
|    \\/     M anipulation  |                                                 |
\*---------------------------------------------------------------------------*/
FoamFile
{
    version     2.0;
    format      ascii;
    arch        "LSB;label=32;scalar=64";
    class       volScalarField;
    location    "600";
    object      epsilon;
}
// * * * * * * * * * * * * * * * * * * * * * * * * * * * * * * * * * * * * * //

dimensions      [0 2 -3 0 0 0 0];

internalField   nonuniform List<scalar> 
131949
(
0.427376
0.492067
0.494247
0.487068
0.480358
0.474537
0.469356
0.464769
0.460689
0.457006
0.453634
0.45051
0.447589
0.444833
0.442215
0.439714
0.437313
0.434997
0.432756
0.430582
0.428465
0.426402
0.424385
0.422411
0.420476
0.418577
0.41671
0.414874
0.413067
0.411285
0.409529
0.407795
0.406084
0.404393
0.402722
0.40107
0.399436
0.397818
0.396218
0.394632
0.393062
0.391507
0.389965
0.388438
0.386923
0.385421
0.383931
0.382454
0.380988
0.379534
0.378091
0.376658
0.375237
0.373825
0.372424
0.371033
0.369652
0.36828
0.366917
0.365564
0.36422
0.362885
0.361558
0.36024
0.358931
0.357629
0.356337
0.355052
0.353775
0.352506
0.351245
0.349991
0.348745
0.347507
0.346276
0.345052
0.343836
0.342626
0.341424
0.340228
0.33904
0.337858
0.336683
0.335515
0.334353
0.333198
0.332049
0.330907
0.329771
0.328641
0.327517
0.3264
0.325289
0.324184
0.323084
0.321991
0.320904
0.319822
0.318746
0.317676
0.316612
0.315553
0.3145
0.313453
0.312411
0.311374
0.310343
0.309317
0.308297
0.307281
0.306271
0.305267
0.304267
0.303272
0.302283
0.301299
0.300319
0.299345
0.298376
0.297411
0.296451
0.295496
0.294546
0.293601
0.292661
0.291725
0.290794
0.289867
0.288945
0.288028
0.287115
0.286206
0.285302
0.284403
0.283508
0.282617
0.281731
0.280849
0.279971
0.279097
0.278228
0.277363
0.276502
0.275646
0.274793
0.273945
0.2731
0.27226
0.271424
0.270591
0.269763
0.268938
0.268118
0.267301
0.266489
0.26568
0.264875
0.264073
0.263276
0.262482
0.261692
0.260906
0.260123
0.259344
0.258569
0.257797
0.257029
0.256265
0.255504
0.254746
0.253992
0.253242
0.252495
0.251751
0.251011
0.250274
0.249541
0.248811
0.248084
0.247361
0.246641
0.245924
0.245211
0.244501
0.243794
0.24309
0.242389
0.241692
0.240998
0.240307
0.239618
0.238934
0.238252
0.237573
0.236897
0.236225
0.235555
0.234888
0.234224
0.233564
0.232906
0.232251
0.231599
0.23095
0.230304
0.22966
0.22902
0.228382
0.227747
0.227115
0.226486
0.225859
0.225235
0.224614
0.223996
0.22338
0.222767
0.222157
0.221549
0.220944
0.220341
0.219742
0.219144
0.21855
0.217958
0.217368
0.216781
0.216196
0.215614
0.215035
0.214458
0.213883
0.213311
0.212741
0.212174
0.211609
0.211047
0.210486
0.209929
0.209373
0.20882
0.208269
0.207721
0.207175
0.206631
0.206089
0.20555
0.205013
0.204478
0.203945
0.203415
0.202886
0.20236
0.201836
0.201314
0.200795
0.200277
0.199762
0.199249
0.198737
0.198228
0.197721
0.197216
0.196713
0.196212
0.195713
0.195217
0.194722
0.194229
0.193738
0.193249
0.192762
0.192277
0.191794
0.191312
0.190833
0.190356
0.18988
0.189406
0.188935
0.188465
0.187997
0.18753
0.187066
0.186603
0.186143
0.185684
0.185226
0.184771
0.184317
0.183865
0.183415
0.182966
0.18252
0.182075
0.181631
0.18119
0.18075
0.180311
0.179875
0.17944
0.179006
0.178575
0.178145
0.177716
0.177289
0.176864
0.17644
0.176018
0.175598
0.175179
0.174761
0.174346
0.173931
0.173519
0.173107
0.172698
0.172289
0.171883
0.171477
0.171073
0.170671
0.17027
0.169871
0.169473
0.169076
0.168681
0.168288
0.167895
0.167504
0.167115
0.166727
0.16634
0.165955
0.165571
0.165188
0.164807
0.164427
0.164048
0.163671
0.163295
0.162921
0.162547
0.162175
0.161805
0.161435
0.161067
0.1607
0.160335
0.15997
0.159607
0.159245
0.158885
0.158525
0.158167
0.15781
0.157454
0.1571
0.156747
0.156394
0.156043
0.155694
0.155345
0.154998
0.154652
0.154306
0.153963
0.15362
0.153278
0.152938
0.152598
0.15226
0.151923
0.151587
0.151252
0.150919
0.150586
0.150255
0.149924
0.149595
0.149267
0.14894
0.148614
0.148289
0.147965
0.147642
0.14732
0.147
0.14668
0.146362
0.146044
0.145728
0.145412
0.145098
0.144785
0.144473
0.144162
0.143855
0.143561
0.143319
0.270384
0.330571
0.37502
0.402594
0.41976
0.430198
0.436093
0.439155
0.440497
0.440758
0.440326
0.439443
0.438265
0.436892
0.435389
0.433799
0.432151
0.430467
0.42876
0.427041
0.425317
0.423592
0.421871
0.420157
0.418451
0.416754
0.415068
0.413393
0.41173
0.410078
0.408439
0.406813
0.405198
0.403595
0.402005
0.400426
0.39886
0.397305
0.395761
0.394229
0.392708
0.391197
0.389698
0.388209
0.38673
0.385262
0.383804
0.382356
0.380918
0.379489
0.37807
0.37666
0.375259
0.373868
0.372485
0.371112
0.369747
0.36839
0.367042
0.365703
0.364371
0.363048
0.361733
0.360426
0.359127
0.357835
0.356551
0.355275
0.354007
0.352745
0.351491
0.350245
0.349005
0.347773
0.346548
0.34533
0.344118
0.342914
0.341716
0.340525
0.339341
0.338163
0.336991
0.335827
0.334668
0.333516
0.33237
0.331231
0.330097
0.32897
0.327849
0.326734
0.325624
0.324521
0.323424
0.322332
0.321246
0.320166
0.319092
0.318023
0.31696
0.315902
0.31485
0.313803
0.312762
0.311726
0.310696
0.30967
0.30865
0.307636
0.306626
0.305622
0.304622
0.303628
0.302639
0.301655
0.300676
0.299701
0.298732
0.297767
0.296808
0.295853
0.294902
0.293957
0.293016
0.29208
0.291149
0.290222
0.289299
0.288382
0.287468
0.28656
0.285655
0.284755
0.28386
0.282969
0.282082
0.281199
0.280321
0.279447
0.278577
0.277711
0.27685
0.275993
0.275139
0.27429
0.273445
0.272604
0.271767
0.270934
0.270105
0.26928
0.268459
0.267641
0.266828
0.266018
0.265212
0.26441
0.263612
0.262818
0.262027
0.26124
0.260456
0.259676
0.2589
0.258128
0.257359
0.256593
0.255832
0.255073
0.254319
0.253567
0.252819
0.252075
0.251334
0.250596
0.249862
0.249131
0.248404
0.24768
0.246959
0.246241
0.245527
0.244816
0.244108
0.243403
0.242702
0.242004
0.241308
0.240616
0.239928
0.239242
0.238559
0.237879
0.237203
0.236529
0.235859
0.235191
0.234527
0.233865
0.233206
0.232551
0.231898
0.231248
0.230601
0.229956
0.229315
0.228676
0.228041
0.227408
0.226778
0.22615
0.225525
0.224904
0.224284
0.223668
0.223054
0.222443
0.221834
0.221228
0.220625
0.220024
0.219426
0.218831
0.218238
0.217647
0.21706
0.216474
0.215891
0.215311
0.214733
0.214158
0.213585
0.213014
0.212446
0.21188
0.211317
0.210756
0.210198
0.209641
0.209088
0.208536
0.207987
0.20744
0.206895
0.206353
0.205813
0.205275
0.204739
0.204206
0.203674
0.203145
0.202618
0.202094
0.201571
0.201051
0.200533
0.200016
0.199502
0.19899
0.198481
0.197973
0.197467
0.196963
0.196462
0.195962
0.195464
0.194969
0.194475
0.193984
0.193494
0.193006
0.19252
0.192037
0.191555
0.191075
0.190597
0.19012
0.189646
0.189173
0.188703
0.188234
0.187767
0.187302
0.186839
0.186377
0.185918
0.18546
0.185003
0.184549
0.184096
0.183646
0.183196
0.182749
0.182303
0.181859
0.181417
0.180976
0.180537
0.1801
0.179664
0.17923
0.178798
0.178367
0.177938
0.177511
0.177085
0.176661
0.176238
0.175817
0.175397
0.174979
0.174563
0.174148
0.173734
0.173322
0.172912
0.172503
0.172096
0.17169
0.171286
0.170883
0.170481
0.170081
0.169683
0.169285
0.16889
0.168495
0.168103
0.167711
0.167321
0.166932
0.166545
0.166159
0.165775
0.165391
0.16501
0.164629
0.16425
0.163872
0.163496
0.16312
0.162746
0.162374
0.162003
0.161633
0.161264
0.160896
0.16053
0.160165
0.159802
0.159439
0.159078
0.158718
0.158359
0.158002
0.157646
0.157291
0.156937
0.156584
0.156233
0.155882
0.155533
0.155185
0.154838
0.154493
0.154148
0.153805
0.153463
0.153122
0.152782
0.152443
0.152106
0.151769
0.151434
0.1511
0.150767
0.150435
0.150104
0.149774
0.149445
0.149118
0.148791
0.148466
0.148141
0.147818
0.147496
0.147175
0.146855
0.146536
0.146218
0.145901
0.145585
0.14527
0.144956
0.144644
0.144333
0.144025
0.14373
0.143489
0.228178
0.258029
0.288821
0.31625
0.339563
0.35869
0.373778
0.385403
0.394261
0.40094
0.405917
0.409572
0.412202
0.414032
0.415237
0.415948
0.416268
0.416275
0.41603
0.415583
0.414969
0.414221
0.413361
0.41241
0.411383
0.410293
0.409152
0.407967
0.406746
0.405495
0.40422
0.402924
0.401612
0.400286
0.398949
0.397603
0.396251
0.394894
0.393534
0.392171
0.390807
0.389442
0.388078
0.386716
0.385355
0.383997
0.382642
0.381291
0.379943
0.378599
0.377259
0.375924
0.374594
0.373268
0.371948
0.370633
0.369324
0.36802
0.366721
0.365429
0.364142
0.362861
0.361585
0.360316
0.359053
0.357795
0.356544
0.355298
0.354058
0.352825
0.351597
0.350376
0.34916
0.34795
0.346747
0.345549
0.344357
0.343171
0.341991
0.340817
0.339649
0.338487
0.33733
0.336179
0.335034
0.333895
0.332761
0.331633
0.330511
0.329394
0.328283
0.327178
0.326078
0.324983
0.323894
0.32281
0.321732
0.320659
0.319592
0.31853
0.317473
0.316421
0.315375
0.314333
0.313297
0.312266
0.311241
0.31022
0.309204
0.308193
0.307188
0.306187
0.305191
0.3042
0.303214
0.302232
0.301256
0.300284
0.299317
0.298355
0.297397
0.296444
0.295496
0.294552
0.293613
0.292679
0.291749
0.290823
0.289902
0.288985
0.288073
0.287165
0.286262
0.285363
0.284468
0.283577
0.282691
0.281809
0.280931
0.280057
0.279187
0.278322
0.277461
0.276603
0.27575
0.274901
0.274056
0.273215
0.272377
0.271544
0.270715
0.269889
0.269068
0.26825
0.267436
0.266626
0.265819
0.265017
0.264218
0.263423
0.262631
0.261843
0.261059
0.260279
0.259502
0.258729
0.257959
0.257193
0.25643
0.255671
0.254915
0.254163
0.253414
0.252668
0.251926
0.251188
0.250453
0.249721
0.248992
0.248267
0.247545
0.246826
0.246111
0.245398
0.244689
0.243984
0.243281
0.242582
0.241885
0.241192
0.240502
0.239815
0.239131
0.23845
0.237772
0.237098
0.236426
0.235757
0.235091
0.234428
0.233768
0.233111
0.232457
0.231806
0.231157
0.230512
0.229869
0.229229
0.228592
0.227958
0.227327
0.226698
0.226072
0.225449
0.224828
0.22421
0.223595
0.222982
0.222373
0.221765
0.221161
0.220559
0.219959
0.219363
0.218768
0.218177
0.217587
0.217001
0.216417
0.215835
0.215256
0.214679
0.214105
0.213533
0.212963
0.212396
0.211832
0.211269
0.21071
0.210152
0.209597
0.209044
0.208493
0.207945
0.207399
0.206855
0.206314
0.205775
0.205238
0.204703
0.204171
0.20364
0.203112
0.202586
0.202062
0.201541
0.201021
0.200504
0.199988
0.199475
0.198964
0.198455
0.197948
0.197443
0.19694
0.196439
0.19594
0.195443
0.194948
0.194456
0.193965
0.193476
0.192989
0.192504
0.19202
0.191539
0.19106
0.190582
0.190107
0.189633
0.189161
0.188691
0.188223
0.187757
0.187292
0.18683
0.186369
0.185909
0.185452
0.184997
0.184543
0.184091
0.18364
0.183192
0.182745
0.1823
0.181856
0.181414
0.180974
0.180536
0.180099
0.179664
0.17923
0.178798
0.178368
0.17794
0.177512
0.177087
0.176663
0.176241
0.17582
0.175401
0.174983
0.174567
0.174153
0.17374
0.173328
0.172918
0.17251
0.172103
0.171697
0.171293
0.170891
0.17049
0.17009
0.169692
0.169295
0.1689
0.168506
0.168113
0.167722
0.167332
0.166944
0.166557
0.166171
0.165787
0.165404
0.165022
0.164642
0.164263
0.163886
0.163509
0.163135
0.162761
0.162389
0.162018
0.161648
0.161279
0.160912
0.160546
0.160181
0.159818
0.159456
0.159095
0.158735
0.158377
0.158019
0.157663
0.157308
0.156955
0.156602
0.156251
0.155901
0.155552
0.155204
0.154857
0.154512
0.154168
0.153825
0.153483
0.153142
0.152802
0.152464
0.152126
0.15179
0.151455
0.151121
0.150788
0.150456
0.150125
0.149795
0.149467
0.149139
0.148813
0.148488
0.148163
0.14784
0.147518
0.147197
0.146877
0.146558
0.146241
0.145924
0.145608
0.145293
0.14498
0.144668
0.14436
0.144064
0.143822
0.214641
0.227086
0.24239
0.259352
0.276822
0.293836
0.309628
0.323787
0.3362
0.346913
0.356048
0.363768
0.370247
0.375653
0.380137
0.383834
0.386859
0.38931
0.391273
0.392817
0.394004
0.394882
0.395496
0.395882
0.396069
0.396086
0.395952
0.395689
0.395312
0.394835
0.394271
0.39363
0.392921
0.392153
0.391332
0.390465
0.389557
0.388612
0.387635
0.38663
0.3856
0.384547
0.383476
0.382386
0.381282
0.380165
0.379035
0.377896
0.376748
0.375593
0.374431
0.373264
0.372092
0.370917
0.369739
0.368558
0.367376
0.366193
0.365009
0.363825
0.362642
0.361459
0.360277
0.359096
0.357918
0.356741
0.355566
0.354394
0.353224
0.352058
0.350894
0.349733
0.348576
0.347422
0.346271
0.345125
0.343981
0.342842
0.341707
0.340576
0.339448
0.338325
0.337206
0.336092
0.334981
0.333875
0.332774
0.331676
0.330583
0.329495
0.328411
0.327332
0.326257
0.325186
0.32412
0.323059
0.322002
0.32095
0.319902
0.318859
0.31782
0.316786
0.315756
0.314731
0.313711
0.312695
0.311684
0.310677
0.309674
0.308677
0.307683
0.306694
0.30571
0.30473
0.303754
0.302783
0.301817
0.300854
0.299896
0.298943
0.297994
0.297049
0.296108
0.295172
0.29424
0.293312
0.292389
0.29147
0.290555
0.289644
0.288737
0.287835
0.286936
0.286042
0.285152
0.284266
0.283384
0.282506
0.281632
0.280762
0.279896
0.279034
0.278176
0.277321
0.276471
0.275625
0.274782
0.273944
0.273109
0.272278
0.271451
0.270627
0.269808
0.268992
0.268179
0.267371
0.266566
0.265765
0.264967
0.264173
0.263383
0.262596
0.261813
0.261033
0.260257
0.259485
0.258716
0.25795
0.257188
0.256429
0.255674
0.254922
0.254173
0.253428
0.252686
0.251948
0.251212
0.25048
0.249752
0.249026
0.248304
0.247585
0.24687
0.246157
0.245448
0.244742
0.244039
0.243339
0.242642
0.241948
0.241257
0.24057
0.239885
0.239204
0.238525
0.23785
0.237177
0.236508
0.235841
0.235177
0.234516
0.233859
0.233203
0.232551
0.231902
0.231256
0.230612
0.229971
0.229333
0.228698
0.228065
0.227435
0.226808
0.226184
0.225562
0.224943
0.224327
0.223713
0.223102
0.222494
0.221888
0.221285
0.220684
0.220086
0.21949
0.218897
0.218307
0.217719
0.217134
0.216551
0.21597
0.215392
0.214817
0.214243
0.213673
0.213104
0.212538
0.211975
0.211413
0.210854
0.210298
0.209744
0.209192
0.208642
0.208095
0.207549
0.207007
0.206466
0.205928
0.205391
0.204858
0.204326
0.203796
0.203269
0.202743
0.20222
0.201699
0.201181
0.200664
0.200149
0.199636
0.199126
0.198618
0.198111
0.197607
0.197104
0.196604
0.196106
0.195609
0.195115
0.194623
0.194132
0.193644
0.193157
0.192673
0.19219
0.191709
0.19123
0.190753
0.190278
0.189805
0.189333
0.188863
0.188396
0.18793
0.187466
0.187003
0.186543
0.186084
0.185627
0.185171
0.184718
0.184266
0.183816
0.183368
0.182921
0.182476
0.182033
0.181591
0.181151
0.180713
0.180277
0.179842
0.179408
0.178977
0.178546
0.178118
0.177691
0.177266
0.176842
0.17642
0.175999
0.17558
0.175163
0.174747
0.174332
0.173919
0.173508
0.173098
0.17269
0.172283
0.171877
0.171473
0.171071
0.17067
0.17027
0.169872
0.169475
0.16908
0.168686
0.168293
0.167902
0.167512
0.167124
0.166737
0.166351
0.165967
0.165584
0.165202
0.164822
0.164443
0.164066
0.163689
0.163314
0.162941
0.162568
0.162197
0.161827
0.161459
0.161091
0.160725
0.16036
0.159997
0.159635
0.159273
0.158914
0.158555
0.158198
0.157841
0.157486
0.157133
0.15678
0.156428
0.156078
0.155729
0.155381
0.155034
0.154689
0.154344
0.154001
0.153659
0.153318
0.152978
0.152639
0.152302
0.151965
0.15163
0.151296
0.150963
0.15063
0.1503
0.14997
0.149641
0.149313
0.148987
0.148661
0.148337
0.148013
0.147691
0.14737
0.14705
0.146731
0.146413
0.146096
0.14578
0.145465
0.145152
0.144843
0.144545
0.144302
0.210104
0.215481
0.2225
0.231134
0.241112
0.252032
0.26341
0.2748
0.285865
0.296366
0.306153
0.315146
0.323318
0.33068
0.337268
0.343128
0.348317
0.35289
0.356905
0.360416
0.363472
0.36612
0.368401
0.370353
0.372011
0.373405
0.374561
0.375505
0.376256
0.376836
0.377261
0.377546
0.377704
0.377749
0.377691
0.377539
0.377302
0.376989
0.376607
0.376161
0.375657
0.375101
0.374498
0.373851
0.373164
0.372442
0.371686
0.370901
0.370088
0.369251
0.36839
0.36751
0.36661
0.365693
0.364761
0.363814
0.362855
0.361884
0.360902
0.359911
0.358912
0.357905
0.356891
0.355871
0.354846
0.353816
0.352781
0.351744
0.350703
0.349659
0.348614
0.347567
0.346518
0.345468
0.344418
0.343367
0.342317
0.341266
0.340216
0.339167
0.338119
0.337072
0.336026
0.334981
0.333939
0.332898
0.331859
0.330822
0.329787
0.328755
0.327725
0.326698
0.325673
0.324652
0.323633
0.322616
0.321603
0.320593
0.319586
0.318582
0.317582
0.316584
0.31559
0.3146
0.313612
0.312628
0.311648
0.310671
0.309698
0.308728
0.307761
0.306799
0.30584
0.304884
0.303932
0.302984
0.30204
0.301099
0.300162
0.299228
0.298298
0.297372
0.29645
0.295531
0.294616
0.293705
0.292798
0.291894
0.290994
0.290098
0.289205
0.288316
0.287431
0.286549
0.285672
0.284797
0.283927
0.28306
0.282197
0.281338
0.280482
0.27963
0.278781
0.277936
0.277095
0.276257
0.275423
0.274592
0.273765
0.272942
0.272122
0.271305
0.270492
0.269683
0.268877
0.268075
0.267276
0.26648
0.265688
0.264899
0.264114
0.263332
0.262554
0.261779
0.261007
0.260239
0.259474
0.258712
0.257954
0.257199
0.256447
0.255698
0.254953
0.254211
0.253472
0.252736
0.252004
0.251275
0.250549
0.249826
0.249106
0.248389
0.247676
0.246965
0.246258
0.245553
0.244852
0.244154
0.243459
0.242766
0.242077
0.241391
0.240708
0.240027
0.23935
0.238675
0.238004
0.237335
0.236669
0.236006
0.235346
0.234689
0.234034
0.233383
0.232734
0.232088
0.231445
0.230804
0.230166
0.229531
0.228899
0.228269
0.227642
0.227018
0.226396
0.225777
0.225161
0.224547
0.223936
0.223327
0.222721
0.222117
0.221517
0.220918
0.220322
0.219729
0.219138
0.21855
0.217964
0.21738
0.216799
0.21622
0.215644
0.21507
0.214499
0.21393
0.213363
0.212799
0.212237
0.211677
0.21112
0.210565
0.210012
0.209462
0.208913
0.208367
0.207824
0.207282
0.206743
0.206206
0.205671
0.205138
0.204607
0.204079
0.203553
0.203028
0.202506
0.201986
0.201468
0.200953
0.200439
0.199927
0.199418
0.19891
0.198405
0.197901
0.1974
0.1969
0.196403
0.195907
0.195413
0.194922
0.194432
0.193944
0.193458
0.192974
0.192492
0.192012
0.191534
0.191057
0.190583
0.19011
0.189639
0.18917
0.188702
0.188237
0.187773
0.187311
0.186851
0.186393
0.185936
0.185481
0.185028
0.184576
0.184127
0.183679
0.183232
0.182788
0.182345
0.181903
0.181464
0.181026
0.180589
0.180155
0.179722
0.17929
0.17886
0.178432
0.178005
0.17758
0.177156
0.176734
0.176314
0.175895
0.175477
0.175062
0.174647
0.174234
0.173823
0.173413
0.173005
0.172598
0.172192
0.171788
0.171386
0.170985
0.170585
0.170187
0.16979
0.169394
0.169
0.168608
0.168217
0.167827
0.167438
0.167051
0.166665
0.166281
0.165898
0.165516
0.165136
0.164757
0.164379
0.164002
0.163627
0.163253
0.162881
0.162509
0.162139
0.16177
0.161403
0.161037
0.160672
0.160308
0.159945
0.159584
0.159224
0.158865
0.158507
0.158151
0.157795
0.157441
0.157088
0.156737
0.156386
0.156037
0.155688
0.155341
0.154995
0.154651
0.154307
0.153965
0.153623
0.153283
0.152944
0.152606
0.152269
0.151933
0.151599
0.151265
0.150933
0.150602
0.150271
0.149942
0.149614
0.149287
0.148961
0.148637
0.148313
0.14799
0.147669
0.147348
0.147029
0.14671
0.146393
0.146077
0.145762
0.145451
0.145153
0.144909
0.208358
0.2109
0.214191
0.218358
0.223454
0.229447
0.236207
0.243547
0.251262
0.259159
0.267065
0.274837
0.282362
0.289561
0.296376
0.302777
0.308745
0.314277
0.319381
0.324069
0.328358
0.33227
0.335824
0.339045
0.341953
0.344572
0.346921
0.34902
0.350889
0.352544
0.354003
0.355279
0.356387
0.35734
0.35815
0.358827
0.359383
0.359826
0.360164
0.360406
0.360559
0.360629
0.360623
0.360547
0.360405
0.360202
0.359943
0.359631
0.359271
0.358867
0.35842
0.357935
0.357414
0.356859
0.356274
0.355659
0.355018
0.354352
0.353663
0.352952
0.352221
0.351472
0.350706
0.349924
0.349127
0.348316
0.347493
0.346658
0.345813
0.344957
0.344092
0.343219
0.342337
0.341449
0.340554
0.339653
0.338747
0.337836
0.33692
0.336001
0.335077
0.334151
0.333221
0.33229
0.331355
0.33042
0.329482
0.328543
0.327604
0.326663
0.325722
0.324781
0.323839
0.322898
0.321956
0.321015
0.320075
0.319136
0.318197
0.317259
0.316323
0.315388
0.314454
0.313522
0.312591
0.311662
0.310735
0.30981
0.308886
0.307965
0.307046
0.306129
0.305215
0.304302
0.303392
0.302485
0.30158
0.300677
0.299777
0.29888
0.297985
0.297093
0.296204
0.295318
0.294434
0.293553
0.292675
0.2918
0.290928
0.290059
0.289193
0.288329
0.287469
0.286612
0.285758
0.284906
0.284058
0.283213
0.282371
0.281532
0.280696
0.279863
0.279033
0.278207
0.277383
0.276563
0.275745
0.274931
0.27412
0.273312
0.272507
0.271705
0.270907
0.270111
0.269319
0.26853
0.267743
0.26696
0.26618
0.265404
0.26463
0.263859
0.263091
0.262327
0.261566
0.260807
0.260052
0.2593
0.25855
0.257804
0.257061
0.256321
0.255584
0.25485
0.254118
0.25339
0.252665
0.251943
0.251224
0.250508
0.249794
0.249084
0.248376
0.247672
0.24697
0.246272
0.245576
0.244883
0.244193
0.243505
0.242821
0.242139
0.241461
0.240785
0.240112
0.239441
0.238774
0.238109
0.237447
0.236788
0.236131
0.235477
0.234826
0.234178
0.233532
0.232889
0.232248
0.231611
0.230976
0.230343
0.229713
0.229086
0.228461
0.227839
0.22722
0.226603
0.225988
0.225376
0.224767
0.22416
0.223556
0.222954
0.222355
0.221758
0.221163
0.220571
0.219982
0.219395
0.21881
0.218228
0.217648
0.21707
0.216495
0.215922
0.215351
0.214783
0.214217
0.213653
0.213092
0.212533
0.211976
0.211422
0.210869
0.210319
0.209771
0.209226
0.208682
0.208141
0.207602
0.207065
0.20653
0.205997
0.205467
0.204939
0.204412
0.203888
0.203366
0.202846
0.202328
0.201812
0.201298
0.200786
0.200276
0.199769
0.199263
0.198759
0.198257
0.197757
0.197259
0.196763
0.196269
0.195777
0.195287
0.194798
0.194312
0.193827
0.193345
0.192864
0.192385
0.191908
0.191433
0.190959
0.190487
0.190018
0.18955
0.189083
0.188619
0.188156
0.187695
0.187236
0.186778
0.186323
0.185869
0.185416
0.184966
0.184517
0.184069
0.183624
0.18318
0.182738
0.182297
0.181858
0.181421
0.180985
0.180551
0.180118
0.179687
0.179258
0.17883
0.178404
0.177979
0.177556
0.177134
0.176714
0.176296
0.175879
0.175463
0.175049
0.174637
0.174226
0.173816
0.173408
0.173001
0.172596
0.172192
0.17179
0.171389
0.17099
0.170592
0.170195
0.1698
0.169406
0.169013
0.168622
0.168232
0.167844
0.167457
0.167071
0.166687
0.166304
0.165922
0.165542
0.165163
0.164785
0.164408
0.164033
0.163659
0.163287
0.162915
0.162545
0.162176
0.161808
0.161442
0.161077
0.160713
0.16035
0.159989
0.159628
0.159269
0.158912
0.158555
0.158199
0.157845
0.157492
0.15714
0.156789
0.15644
0.156091
0.155744
0.155398
0.155053
0.154709
0.154366
0.154024
0.153684
0.153344
0.153006
0.152669
0.152333
0.151998
0.151664
0.151331
0.151
0.150669
0.15034
0.150011
0.149684
0.149358
0.149033
0.148708
0.148385
0.148063
0.147743
0.147423
0.147104
0.146786
0.14647
0.146158
0.145858
0.145613
0.207572
0.208875
0.210512
0.212559
0.215095
0.218178
0.221822
0.225997
0.230646
0.235691
0.241041
0.246602
0.252283
0.258003
0.263689
0.269281
0.274729
0.279997
0.285054
0.289882
0.294468
0.298803
0.302887
0.306719
0.310305
0.313649
0.31676
0.319647
0.322319
0.324785
0.327055
0.32914
0.33105
0.332793
0.33438
0.335818
0.337118
0.338286
0.33933
0.340259
0.341078
0.341794
0.342414
0.342944
0.343388
0.343752
0.344041
0.344259
0.34441
0.344499
0.344529
0.344504
0.344427
0.344301
0.344129
0.343914
0.343659
0.343365
0.343035
0.342671
0.342275
0.341849
0.341395
0.340915
0.340409
0.33988
0.339329
0.338757
0.338165
0.337555
0.336928
0.336284
0.335625
0.334951
0.334265
0.333565
0.332854
0.332131
0.331398
0.330655
0.329903
0.329142
0.328374
0.327598
0.326815
0.326025
0.32523
0.324429
0.323623
0.322812
0.321996
0.321177
0.320353
0.319527
0.318697
0.317864
0.317029
0.316192
0.315352
0.314511
0.313668
0.312824
0.311979
0.311132
0.310285
0.309438
0.308589
0.307741
0.306892
0.306044
0.305195
0.304347
0.3035
0.302652
0.301806
0.30096
0.300115
0.299271
0.298428
0.297586
0.296746
0.295906
0.295068
0.294232
0.293397
0.292563
0.291732
0.290902
0.290073
0.289247
0.288422
0.287599
0.286779
0.28596
0.285143
0.284329
0.283516
0.282706
0.281898
0.281092
0.280288
0.279487
0.278688
0.277892
0.277097
0.276305
0.275516
0.274729
0.273944
0.273162
0.272383
0.271606
0.270831
0.270059
0.26929
0.268523
0.267759
0.266997
0.266238
0.265481
0.264727
0.263976
0.263227
0.262481
0.261738
0.260997
0.260259
0.259523
0.25879
0.25806
0.257333
0.256608
0.255886
0.255166
0.254449
0.253735
0.253023
0.252314
0.251608
0.250904
0.250203
0.249505
0.248809
0.248116
0.247426
0.246738
0.246053
0.24537
0.244691
0.244013
0.243339
0.242667
0.241997
0.24133
0.240666
0.240004
0.239345
0.238688
0.238034
0.237383
0.236734
0.236088
0.235444
0.234802
0.234164
0.233527
0.232894
0.232262
0.231633
0.231007
0.230383
0.229762
0.229143
0.228526
0.227912
0.2273
0.226691
0.226084
0.22548
0.224878
0.224278
0.223681
0.223086
0.222493
0.221903
0.221315
0.22073
0.220146
0.219565
0.218987
0.21841
0.217836
0.217264
0.216695
0.216127
0.215562
0.214999
0.214438
0.21388
0.213324
0.21277
0.212218
0.211668
0.21112
0.210575
0.210031
0.20949
0.208951
0.208414
0.207879
0.207346
0.206816
0.206287
0.20576
0.205236
0.204713
0.204193
0.203674
0.203158
0.202643
0.202131
0.20162
0.201112
0.200605
0.2001
0.199598
0.199097
0.198598
0.198101
0.197606
0.197113
0.196622
0.196132
0.195645
0.195159
0.194675
0.194193
0.193713
0.193235
0.192758
0.192283
0.19181
0.191339
0.19087
0.190402
0.189936
0.189472
0.189009
0.188549
0.18809
0.187632
0.187177
0.186723
0.18627
0.18582
0.185371
0.184924
0.184478
0.184034
0.183592
0.183151
0.182712
0.182274
0.181838
0.181404
0.180971
0.18054
0.18011
0.179682
0.179256
0.178831
0.178407
0.177985
0.177565
0.177146
0.176728
0.176312
0.175898
0.175485
0.175073
0.174663
0.174255
0.173847
0.173442
0.173037
0.172634
0.172233
0.171833
0.171434
0.171037
0.170641
0.170246
0.169853
0.169461
0.169071
0.168681
0.168294
0.167907
0.167522
0.167138
0.166755
0.166374
0.165994
0.165616
0.165238
0.164862
0.164487
0.164114
0.163741
0.16337
0.163
0.162632
0.162264
0.161898
0.161533
0.16117
0.160807
0.160446
0.160086
0.159727
0.159369
0.159013
0.158657
0.158303
0.15795
0.157598
0.157247
0.156898
0.156549
0.156202
0.155856
0.155511
0.155167
0.154824
0.154483
0.154142
0.153803
0.153464
0.153127
0.152791
0.152456
0.152122
0.151789
0.151457
0.151127
0.150797
0.150468
0.150141
0.149815
0.149489
0.149165
0.148842
0.14852
0.148198
0.147878
0.14756
0.147242
0.146929
0.146628
0.146381
0.207161
0.207854
0.208705
0.209746
0.211023
0.212585
0.21447
0.216696
0.21927
0.222181
0.225407
0.228913
0.232657
0.236594
0.240676
0.244856
0.249092
0.253343
0.257573
0.261752
0.265854
0.269856
0.273742
0.277498
0.281114
0.284582
0.287897
0.291058
0.294062
0.29691
0.299604
0.302147
0.304541
0.306791
0.308901
0.310875
0.312718
0.314435
0.316031
0.317511
0.318879
0.320141
0.321301
0.322364
0.323334
0.324216
0.325014
0.325731
0.326372
0.32694
0.327439
0.327871
0.328242
0.328552
0.328806
0.329006
0.329155
0.329255
0.329309
0.329319
0.329287
0.329215
0.329105
0.328959
0.32878
0.328567
0.328324
0.328052
0.327752
0.327425
0.327073
0.326698
0.326299
0.325879
0.325439
0.324979
0.3245
0.324004
0.323491
0.322963
0.322419
0.321862
0.32129
0.320706
0.32011
0.319503
0.318884
0.318255
0.317616
0.316968
0.316312
0.315647
0.314974
0.314294
0.313607
0.312913
0.312214
0.311508
0.310797
0.310081
0.30936
0.308635
0.307906
0.307172
0.306435
0.305695
0.304951
0.304205
0.303456
0.302704
0.301951
0.301195
0.300437
0.299678
0.298917
0.298155
0.297391
0.296627
0.295862
0.295096
0.294329
0.293562
0.292795
0.292027
0.291259
0.290491
0.289724
0.288956
0.288189
0.287423
0.286656
0.285891
0.285126
0.284361
0.283598
0.282835
0.282074
0.281313
0.280554
0.279795
0.279038
0.278282
0.277527
0.276774
0.276022
0.275272
0.274523
0.273775
0.27303
0.272286
0.271543
0.270802
0.270063
0.269326
0.26859
0.267857
0.267125
0.266395
0.265667
0.264941
0.264216
0.263494
0.262774
0.262056
0.26134
0.260626
0.259914
0.259204
0.258496
0.25779
0.257087
0.256385
0.255686
0.254989
0.254294
0.253602
0.252911
0.252223
0.251537
0.250853
0.250172
0.249492
0.248815
0.248141
0.247468
0.246798
0.24613
0.245464
0.244801
0.24414
0.243481
0.242824
0.24217
0.241518
0.240868
0.24022
0.239575
0.238932
0.238292
0.237653
0.237017
0.236384
0.235752
0.235123
0.234496
0.233871
0.233249
0.232629
0.232011
0.231395
0.230781
0.23017
0.229561
0.228955
0.22835
0.227748
0.227148
0.22655
0.225955
0.225361
0.22477
0.224181
0.223594
0.22301
0.222427
0.221847
0.221269
0.220693
0.220119
0.219548
0.218978
0.218411
0.217845
0.217282
0.216721
0.216162
0.215606
0.215051
0.214498
0.213948
0.213399
0.212853
0.212308
0.211766
0.211225
0.210687
0.210151
0.209616
0.209084
0.208554
0.208026
0.207499
0.206975
0.206452
0.205932
0.205413
0.204897
0.204382
0.20387
0.203359
0.20285
0.202343
0.201838
0.201334
0.200833
0.200334
0.199836
0.19934
0.198846
0.198354
0.197864
0.197375
0.196888
0.196403
0.19592
0.195439
0.194959
0.194481
0.194005
0.193531
0.193058
0.192588
0.192119
0.191651
0.191185
0.190721
0.190259
0.189798
0.189339
0.188882
0.188426
0.187972
0.18752
0.187069
0.18662
0.186173
0.185727
0.185282
0.18484
0.184399
0.183959
0.183521
0.183085
0.18265
0.182216
0.181785
0.181354
0.180926
0.180499
0.180073
0.179649
0.179226
0.178805
0.178385
0.177967
0.17755
0.177135
0.176721
0.176308
0.175897
0.175487
0.175079
0.174673
0.174267
0.173863
0.173461
0.173059
0.17266
0.172261
0.171864
0.171468
0.171074
0.170681
0.170289
0.169899
0.169509
0.169122
0.168735
0.16835
0.167966
0.167584
0.167202
0.166822
0.166444
0.166066
0.16569
0.165315
0.164941
0.164568
0.164197
0.163827
0.163458
0.163091
0.162724
0.162359
0.161995
0.161632
0.16127
0.16091
0.160551
0.160192
0.159835
0.15948
0.159125
0.158771
0.158419
0.158068
0.157718
0.157369
0.157021
0.156674
0.156328
0.155984
0.155641
0.155298
0.154957
0.154617
0.154278
0.15394
0.153603
0.153267
0.152933
0.152599
0.152267
0.151935
0.151605
0.151275
0.150947
0.15062
0.150294
0.149969
0.149645
0.149322
0.149
0.148679
0.148359
0.148041
0.147726
0.147424
0.147177
0.206917
0.20727
0.207705
0.208235
0.208879
0.209666
0.210621
0.211767
0.213122
0.214698
0.2165
0.218526
0.220767
0.223209
0.225833
0.228617
0.231536
0.234566
0.23768
0.240855
0.244066
0.247291
0.250512
0.253709
0.256868
0.259975
0.263018
0.265988
0.268876
0.271677
0.274385
0.276996
0.279509
0.28192
0.28423
0.286438
0.288544
0.29055
0.292456
0.294265
0.295977
0.297596
0.299124
0.300563
0.301916
0.303184
0.304372
0.305481
0.306514
0.307474
0.308364
0.309185
0.309941
0.310634
0.311266
0.31184
0.312358
0.312822
0.313234
0.313597
0.313912
0.314182
0.314407
0.314591
0.314734
0.314838
0.314906
0.314938
0.314936
0.314901
0.314835
0.314739
0.314615