/*--------------------------------*- C++ -*----------------------------------*\
| =========                 |                                                 |
| \\      /  F ield         | OpenFOAM: The Open Source CFD Toolbox           |
|  \\    /   O peration     | Version:  2506                                  |
|   \\  /    A nd           | Website:  www.openfoam.com                      |
|    \\/     M anipulation  |                                                 |
\*---------------------------------------------------------------------------*/
FoamFile
{
    version     2.0;
    format      ascii;
    arch        "LSB;label=32;scalar=64";
    class       volScalarField;
    location    "600";
    object      k;
}
// * * * * * * * * * * * * * * * * * * * * * * * * * * * * * * * * * * * * * //

dimensions      [0 2 -2 0 0 0 0];

internalField   nonuniform List<scalar> 
131949
(
0.559553
0.61061
0.612364
0.607642
0.603741
0.600655
0.598025
0.595766
0.593797
0.592037
0.590428
0.588931
0.587522
0.58618
0.584891
0.583646
0.582436
0.581255
0.580099
0.578963
0.577845
0.576743
0.575654
0.574577
0.57351
0.572453
0.571404
0.570364
0.56933
0.568303
0.567282
0.566266
0.565256
0.564251
0.563251
0.562255
0.561264
0.560277
0.559294
0.558315
0.557339
0.556368
0.5554
0.554435
0.553474
0.552516
0.551562
0.55061
0.549662
0.548717
0.547776
0.546837
0.545902
0.544969
0.544039
0.543113
0.542189
0.541268
0.540351
0.539436
0.538523
0.537614
0.536708
0.535804
0.534903
0.534005
0.53311
0.532217
0.531328
0.53044
0.529556
0.528674
0.527796
0.526919
0.526046
0.525175
0.524306
0.523441
0.522578
0.521717
0.52086
0.520005
0.519152
0.518302
0.517455
0.51661
0.515768
0.514928
0.514091
0.513256
0.512424
0.511595
0.510768
0.509943
0.509121
0.508302
0.507485
0.50667
0.505858
0.505048
0.504241
0.503436
0.502634
0.501834
0.501037
0.500241
0.499449
0.498659
0.497871
0.497085
0.496302
0.495521
0.494743
0.493967
0.493193
0.492422
0.491653
0.490886
0.490121
0.489359
0.4886
0.487842
0.487087
0.486334
0.485583
0.484834
0.484088
0.483344
0.482603
0.481863
0.481126
0.480391
0.479658
0.478927
0.478199
0.477472
0.476748
0.476026
0.475306
0.474589
0.473873
0.47316
0.472449
0.471739
0.471032
0.470328
0.469625
0.468924
0.468226
0.467529
0.466835
0.466142
0.465452
0.464764
0.464077
0.463393
0.462711
0.462031
0.461353
0.460677
0.460003
0.459331
0.458661
0.457993
0.457327
0.456662
0.456
0.45534
0.454682
0.454026
0.453371
0.452719
0.452068
0.45142
0.450773
0.450128
0.449486
0.448845
0.448206
0.447568
0.446933
0.4463
0.445668
0.445038
0.44441
0.443784
0.44316
0.442538
0.441917
0.441299
0.440682
0.440067
0.439453
0.438842
0.438232
0.437624
0.437018
0.436414
0.435811
0.43521
0.434611
0.434014
0.433418
0.432824
0.432232
0.431641
0.431053
0.430466
0.42988
0.429296
0.428714
0.428134
0.427556
0.426979
0.426403
0.42583
0.425258
0.424687
0.424118
0.423551
0.422986
0.422422
0.42186
0.421299
0.42074
0.420182
0.419626
0.419072
0.418519
0.417968
0.417418
0.41687
0.416323
0.415778
0.415235
0.414693
0.414152
0.413613
0.413076
0.41254
0.412005
0.411472
0.410941
0.410411
0.409882
0.409355
0.408829
0.408305
0.407782
0.407261
0.406741
0.406222
0.405705
0.405189
0.404675
0.404162
0.40365
0.40314
0.402631
0.402124
0.401618
0.401113
0.400609
0.400107
0.399606
0.399107
0.398609
0.398112
0.397617
0.397122
0.396629
0.396138
0.395647
0.395158
0.39467
0.394184
0.393699
0.393215
0.392732
0.39225
0.39177
0.391291
0.390813
0.390336
0.38986
0.389386
0.388913
0.388441
0.38797
0.387501
0.387032
0.386565
0.386099
0.385634
0.38517
0.384708
0.384246
0.383786
0.383327
0.382868
0.382411
0.381955
0.3815
0.381047
0.380594
0.380142
0.379692
0.379242
0.378794
0.378347
0.3779
0.377455
0.377011
0.376568
0.376125
0.375684
0.375244
0.374805
0.374367
0.37393
0.373494
0.373059
0.372624
0.372191
0.371759
0.371328
0.370897
0.370468
0.37004
0.369612
0.369186
0.36876
0.368336
0.367912
0.367489
0.367068
0.366647
0.366227
0.365808
0.365389
0.364972
0.364556
0.36414
0.363726
0.363312
0.362899
0.362487
0.362076
0.361666
0.361257
0.360849
0.360441
0.360035
0.359629
0.359224
0.35882
0.358417
0.358015
0.357614
0.357213
0.356814
0.356415
0.356017
0.35562
0.355224
0.354829
0.354435
0.354041
0.353649
0.353257
0.352866
0.352476
0.352087
0.351699
0.351312
0.350926
0.350541
0.350156
0.349772
0.34939
0.349008
0.348627
0.348247
0.347868
0.34749
0.347113
0.346737
0.346361
0.345987
0.345613
0.34524
0.344869
0.344498
0.344128
0.343759
0.343391
0.343026
0.342666
0.342327
0.342059
0.437505
0.49331
0.531808
0.554333
0.5678
0.575801
0.5803
0.582718
0.583927
0.584398
0.584402
0.584105
0.583607
0.582974
0.582246
0.581451
0.580607
0.579728
0.578823
0.577899
0.57696
0.57601
0.575052
0.574088
0.57312
0.572148
0.571175
0.570201
0.569226
0.568251
0.567276
0.566302
0.565329
0.564357
0.563387
0.562419
0.561452
0.560487
0.559524
0.558563
0.557604
0.556648
0.555694
0.554742
0.553792
0.552845
0.5519
0.550958
0.550018
0.54908
0.548145
0.547213
0.546283
0.545356
0.544431
0.543509
0.542589
0.541672
0.540758
0.539846
0.538937
0.53803
0.537126
0.536224
0.535326
0.534429
0.533536
0.532644
0.531756
0.53087
0.529987
0.529106
0.528228
0.527352
0.526479
0.525608
0.524741
0.523875
0.523012
0.522152
0.521294
0.520439
0.519587
0.518737
0.517889
0.517044
0.516202
0.515362
0.514524
0.513689
0.512857
0.512027
0.511199
0.510374
0.509551
0.508731
0.507914
0.507098
0.506286
0.505475
0.504667
0.503862
0.503059
0.502258
0.50146
0.500664
0.499871
0.499079
0.498291
0.497504
0.49672
0.495939
0.495159
0.494383
0.493608
0.492836
0.492066
0.491298
0.490533
0.48977
0.489009
0.48825
0.487494
0.48674
0.485988
0.485239
0.484492
0.483747
0.483004
0.482264
0.481525
0.480789
0.480056
0.479324
0.478594
0.477867
0.477142
0.476419
0.475698
0.47498
0.474263
0.473549
0.472837
0.472127
0.471419
0.470713
0.470009
0.469307
0.468608
0.46791
0.467215
0.466522
0.46583
0.465141
0.464454
0.463769
0.463086
0.462405
0.461726
0.461049
0.460374
0.459701
0.45903
0.458361
0.457694
0.457029
0.456365
0.455704
0.455045
0.454388
0.453733
0.453079
0.452428
0.451778
0.451131
0.450485
0.449842
0.4492
0.44856
0.447922
0.447285
0.446651
0.446019
0.445388
0.444759
0.444132
0.443507
0.442884
0.442263
0.441643
0.441026
0.44041
0.439795
0.439183
0.438573
0.437964
0.437357
0.436752
0.436148
0.435547
0.434947
0.434348
0.433752
0.433157
0.432564
0.431973
0.431383
0.430796
0.430209
0.429625
0.429042
0.428461
0.427882
0.427304
0.426728
0.426153
0.425581
0.425009
0.42444
0.423872
0.423306
0.422741
0.422178
0.421617
0.421057
0.420499
0.419942
0.419387
0.418833
0.418282
0.417731
0.417182
0.416635
0.416089
0.415545
0.415002
0.414461
0.413921
0.413383
0.412847
0.412311
0.411778
0.411245
0.410715
0.410185
0.409658
0.409131
0.408606
0.408083
0.407561
0.40704
0.406521
0.406003
0.405487
0.404972
0.404458
0.403946
0.403435
0.402925
0.402417
0.401911
0.401405
0.400901
0.400398
0.399897
0.399397
0.398898
0.398401
0.397905
0.39741
0.396916
0.396424
0.395933
0.395443
0.394955
0.394468
0.393982
0.393497
0.393014
0.392531
0.392051
0.391571
0.391092
0.390615
0.390139
0.389664
0.38919
0.388718
0.388247
0.387776
0.387307
0.38684
0.386373
0.385907
0.385443
0.38498
0.384518
0.384057
0.383597
0.383138
0.382681
0.382224
0.381769
0.381314
0.380861
0.380409
0.379958
0.379508
0.379059
0.378611
0.378164
0.377718
0.377274
0.37683
0.376387
0.375945
0.375505
0.375065
0.374626
0.374189
0.373752
0.373316
0.372882
0.372448
0.372015
0.371583
0.371153
0.370723
0.370294
0.369866
0.369439
0.369013
0.368588
0.368164
0.36774
0.367318
0.366897
0.366476
0.366057
0.365638
0.36522
0.364803
0.364387
0.363972
0.363558
0.363145
0.362732
0.362321
0.36191
0.3615
0.361092
0.360684
0.360277
0.35987
0.359465
0.359061
0.358657
0.358254
0.357853
0.357452
0.357052
0.356652
0.356254
0.355857
0.35546
0.355064
0.35467
0.354276
0.353883
0.353491
0.3531
0.352709
0.35232
0.351931
0.351544
0.351157
0.350771
0.350386
0.350002
0.349619
0.349237
0.348856
0.348475
0.348096
0.347717
0.34734
0.346963
0.346587
0.346212
0.345838
0.345465
0.345093
0.344722
0.344351
0.343982
0.343614
0.343248
0.342888
0.342548
0.342281
0.398944
0.430837
0.461659
0.487593
0.508599
0.525145
0.537752
0.5472
0.554253
0.559503
0.563393
0.566258
0.568346
0.569841
0.570878
0.571558
0.571956
0.57213
0.572125
0.571974
0.571704
0.571336
0.570886
0.57037
0.569796
0.569175
0.568513
0.567816
0.567091
0.56634
0.565567
0.564776
0.563969
0.563148
0.562316
0.561473
0.560621
0.559761
0.558895
0.558024
0.557147
0.556267
0.555383
0.554496
0.553606
0.552715
0.551823
0.550929
0.550034
0.549139
0.548244
0.547348
0.546453
0.545558
0.544663
0.543769
0.542876
0.541984
0.541094
0.540204
0.539315
0.538428
0.537543
0.536658
0.535776
0.534895
0.534016
0.533139
0.532263
0.531389
0.530518
0.529648
0.52878
0.527914
0.52705
0.526188
0.525329
0.524471
0.523616
0.522762
0.521911
0.521062
0.520216
0.519371
0.518529
0.517689
0.516851
0.516015
0.515182
0.514351
0.513522
0.512695
0.511871
0.511049
0.510229
0.509412
0.508596
0.507784
0.506973
0.506165
0.505359
0.504555
0.503753
0.502954
0.502157
0.501363
0.50057
0.49978
0.498993
0.498207
0.497424
0.496643
0.495864
0.495088
0.494314
0.493542
0.492772
0.492004
0.491239
0.490476
0.489716
0.488957
0.488201
0.487447
0.486695
0.485945
0.485198
0.484453
0.483709
0.482969
0.48223
0.481493
0.480759
0.480027
0.479297
0.478569
0.477843
0.477119
0.476398
0.475679
0.474961
0.474246
0.473533
0.472822
0.472113
0.471407
0.470702
0.47
0.469299
0.468601
0.467904
0.46721
0.466518
0.465827
0.465139
0.464453
0.463769
0.463087
0.462407
0.461729
0.461053
0.460379
0.459706
0.459036
0.458368
0.457702
0.457038
0.456375
0.455715
0.455057
0.4544
0.453746
0.453093
0.452443
0.451794
0.451147
0.450502
0.449859
0.449218
0.448579
0.447941
0.447306
0.446672
0.44604
0.44541
0.444782
0.444156
0.443531
0.442909
0.442288
0.441669
0.441052
0.440437
0.439823
0.439211
0.438601
0.437993
0.437387
0.436782
0.436179
0.435578
0.434979
0.434381
0.433785
0.433191
0.432598
0.432008
0.431418
0.430831
0.430245
0.429661
0.429079
0.428499
0.42792
0.427342
0.426767
0.426193
0.42562
0.42505
0.424481
0.423913
0.423348
0.422783
0.422221
0.42166
0.4211
0.420543
0.419986
0.419432
0.418879
0.418327
0.417777
0.417229
0.416682
0.416136
0.415593
0.41505
0.414509
0.41397
0.413432
0.412896
0.412361
0.411828
0.411296
0.410766
0.410237
0.409709
0.409183
0.408659
0.408135
0.407614
0.407093
0.406574
0.406057
0.405541
0.405026
0.404513
0.404001
0.40349
0.402981
0.402473
0.401967
0.401462
0.400958
0.400455
0.399954
0.399455
0.398956
0.398459
0.397963
0.397468
0.396975
0.396483
0.395992
0.395503
0.395015
0.394528
0.394042
0.393558
0.393074
0.392593
0.392112
0.391632
0.391154
0.390677
0.390201
0.389726
0.389253
0.38878
0.388309
0.387839
0.387371
0.386903
0.386436
0.385971
0.385507
0.385044
0.384582
0.384121
0.383661
0.383203
0.382745
0.382289
0.381834
0.381379
0.380926
0.380474
0.380023
0.379573
0.379124
0.378677
0.37823
0.377784
0.377339
0.376896
0.376453
0.376012
0.375571
0.375131
0.374693
0.374255
0.373819
0.373383
0.372948
0.372515
0.372082
0.37165
0.371219
0.37079
0.370361
0.369933
0.369506
0.36908
0.368655
0.368231
0.367807
0.367385
0.366964
0.366543
0.366123
0.365705
0.365287
0.36487
0.364454
0.364039
0.363625
0.363212
0.362799
0.362388
0.361977
0.361567
0.361158
0.360751
0.360343
0.359937
0.359532
0.359127
0.358724
0.358321
0.357919
0.357518
0.357118
0.356719
0.356321
0.355924
0.355527
0.355131
0.354737
0.354343
0.35395
0.353558
0.353167
0.352776
0.352387
0.351999
0.351611
0.351224
0.350839
0.350454
0.35007
0.349687
0.349305
0.348924
0.348543
0.348164
0.347785
0.347408
0.347031
0.346656
0.346281
0.345907
0.345534
0.345162
0.344791
0.344421
0.344052
0.343685
0.343325
0.342984
0.342716
0.384717
0.399671
0.417137
0.435562
0.453685
0.470605
0.485713
0.4988
0.509935
0.519299
0.527112
0.533599
0.538968
0.543401
0.547052
0.550051
0.552505
0.554503
0.556116
0.557405
0.558419
0.559198
0.559777
0.560184
0.560442
0.560572
0.560591
0.560512
0.560348
0.56011
0.559805
0.559443
0.559029
0.55857
0.558071
0.557535
0.556968
0.556371
0.555749
0.555104
0.554439
0.553754
0.553054
0.552338
0.551608
0.550867
0.550114
0.549352
0.548581
0.547802
0.547015
0.546223
0.545424
0.544621
0.543813
0.543001
0.542185
0.541366
0.540544
0.53972
0.538893
0.538065
0.537236
0.536405
0.535573
0.53474
0.533906
0.533072
0.532238
0.531404
0.53057
0.529736
0.528902
0.528069
0.527237
0.526405
0.525573
0.524743
0.523914
0.523085
0.522258
0.521432
0.520607
0.519783
0.518961
0.51814
0.51732
0.516502
0.515686
0.514871
0.514058
0.513246
0.512436
0.511627
0.510821
0.510016
0.509213
0.508411
0.507612
0.506814
0.506018
0.505224
0.504432
0.503642
0.502854
0.502068
0.501283
0.500501
0.499721
0.498942
0.498166
0.497391
0.496619
0.495848
0.49508
0.494313
0.493549
0.492786
0.492026
0.491268
0.490511
0.489757
0.489005
0.488255
0.487506
0.48676
0.486016
0.485274
0.484534
0.483796
0.48306
0.482326
0.481595
0.480865
0.480137
0.479411
0.478688
0.477966
0.477246
0.476529
0.475813
0.475099
0.474388
0.473678
0.472971
0.472265
0.471562
0.47086
0.470161
0.469463
0.468768
0.468074
0.467382
0.466693
0.466005
0.46532
0.464636
0.463954
0.463274
0.462597
0.461921
0.461247
0.460575
0.459905
0.459237
0.458571
0.457906
0.457244
0.456584
0.455925
0.455268
0.454614
0.453961
0.45331
0.452661
0.452014
0.451368
0.450725
0.450083
0.449443
0.448806
0.44817
0.447535
0.446903
0.446272
0.445644
0.445017
0.444392
0.443768
0.443147
0.442527
0.441909
0.441293
0.440679
0.440066
0.439456
0.438847
0.438239
0.437634
0.43703
0.436428
0.435828
0.435229
0.434633
0.434037
0.433444
0.432852
0.432262
0.431674
0.431087
0.430502
0.429919
0.429338
0.428758
0.428179
0.427603
0.427028
0.426455
0.425883
0.425313
0.424744
0.424177
0.423612
0.423049
0.422486
0.421926
0.421367
0.42081
0.420254
0.4197
0.419147
0.418596
0.418047
0.417499
0.416952
0.416407
0.415864
0.415322
0.414781
0.414243
0.413705
0.413169
0.412635
0.412102
0.41157
0.41104
0.410512
0.409984
0.409459
0.408934
0.408411
0.40789
0.40737
0.406851
0.406334
0.405818
0.405304
0.404791
0.404279
0.403769
0.40326
0.402752
0.402246
0.401741
0.401237
0.400735
0.400234
0.399734
0.399236
0.398739
0.398243
0.397749
0.397255
0.396764
0.396273
0.395784
0.395296
0.394809
0.394323
0.393839
0.393356
0.392874
0.392393
0.391914
0.391435
0.390958
0.390482
0.390008
0.389534
0.389062
0.388591
0.388121
0.387652
0.387184
0.386718
0.386252
0.385788
0.385325
0.384863
0.384402
0.383943
0.383484
0.383026
0.38257
0.382115
0.38166
0.381207
0.380755
0.380304
0.379854
0.379405
0.378957
0.37851
0.378064
0.377619
0.377176
0.376733
0.376291
0.37585
0.375411
0.374972
0.374534
0.374097
0.373662
0.373227
0.372793
0.37236
0.371928
0.371497
0.371067
0.370638
0.37021
0.369783
0.369357
0.368931
0.368507
0.368083
0.367661
0.367239
0.366819
0.366399
0.36598
0.365562
0.365145
0.364728
0.364313
0.363899
0.363485
0.363073
0.362661
0.36225
0.36184
0.361431
0.361023
0.360615
0.360209
0.359803
0.359399
0.358995
0.358592
0.35819
0.357789
0.357388
0.356989
0.35659
0.356193
0.355796
0.3554
0.355005
0.354611
0.354218
0.353826
0.353434
0.353044
0.352654
0.352266
0.351878
0.351491
0.351105
0.35072
0.350336
0.349953
0.34957
0.349189
0.348809
0.348429
0.34805
0.347673
0.347296
0.34692
0.346545
0.346171
0.345798
0.345426
0.345055
0.344685
0.344317
0.343955
0.343614
0.343345
0.379451
0.386516
0.395429
0.405971
0.417679
0.430003
0.442377
0.45434
0.465593
0.475964
0.485376
0.49382
0.501335
0.507982
0.513836
0.518973
0.523471
0.527399
0.530823
0.533801
0.536386
0.538622
0.540551
0.542207
0.543621
0.544821
0.54583
0.546669
0.547356
0.547907
0.548337
0.548656
0.548877
0.54901
0.549062
0.549041
0.548955
0.548809
0.548609
0.548359
0.548065
0.547729
0.547356
0.546949
0.546511
0.546043
0.54555
0.545032
0.544492
0.543931
0.543352
0.542755
0.542143
0.541516
0.540875
0.540222
0.539558
0.538883
0.538198
0.537505
0.536803
0.536093
0.535377
0.534654
0.533925
0.533191
0.532452
0.531709
0.530961
0.53021
0.529455
0.528697
0.527936
0.527172
0.526407
0.525639
0.524869
0.524098
0.523326
0.522552
0.521777
0.521002
0.520226
0.519449
0.518671
0.517894
0.517116
0.516338
0.515561
0.514783
0.514006
0.513229
0.512452
0.511676
0.510901
0.510126
0.509352
0.508579
0.507806
0.507035
0.506264
0.505495
0.504726
0.503959
0.503193
0.502428
0.501664
0.500901
0.50014
0.49938
0.498622
0.497865
0.497109
0.496355
0.495603
0.494851
0.494102
0.493354
0.492607
0.491862
0.491119
0.490377
0.489637
0.488899
0.488162
0.487427
0.486693
0.485962
0.485232
0.484503
0.483777
0.483052
0.482329
0.481608
0.480888
0.480171
0.479455
0.478741
0.478028
0.477318
0.476609
0.475902
0.475197
0.474493
0.473792
0.473092
0.472394
0.471698
0.471004
0.470311
0.46962
0.468932
0.468245
0.467559
0.466876
0.466195
0.465515
0.464837
0.464161
0.463487
0.462814
0.462144
0.461475
0.460808
0.460143
0.45948
0.458818
0.458159
0.457501
0.456845
0.456191
0.455538
0.454888
0.454239
0.453592
0.452946
0.452303
0.451661
0.451022
0.450384
0.449747
0.449113
0.44848
0.447849
0.44722
0.446592
0.445967
0.445343
0.444721
0.4441
0.443481
0.442864
0.442249
0.441636
0.441024
0.440414
0.439806
0.439199
0.438594
0.437991
0.437389
0.43679
0.436191
0.435595
0.435
0.434407
0.433816
0.433226
0.432638
0.432052
0.431467
0.430884
0.430302
0.429722
0.429144
0.428567
0.427992
0.427419
0.426847
0.426277
0.425708
0.425141
0.424576
0.424012
0.42345
0.422889
0.42233
0.421772
0.421216
0.420662
0.420109
0.419557
0.419007
0.418459
0.417912
0.417367
0.416823
0.416281
0.41574
0.4152
0.414662
0.414126
0.413591
0.413057
0.412525
0.411994
0.411465
0.410937
0.410411
0.409886
0.409363
0.40884
0.40832
0.4078
0.407282
0.406766
0.406251
0.405737
0.405224
0.404713
0.404204
0.403695
0.403188
0.402682
0.402178
0.401675
0.401173
0.400673
0.400173
0.399676
0.399179
0.398684
0.39819
0.397697
0.397205
0.396715
0.396226
0.395738
0.395252
0.394767
0.394283
0.3938
0.393318
0.392838
0.392358
0.39188
0.391404
0.390928
0.390454
0.38998
0.389508
0.389037
0.388567
0.388099
0.387631
0.387165
0.3867
0.386236
0.385773
0.385311
0.38485
0.38439
0.383932
0.383474
0.383018
0.382562
0.382108
0.381655
0.381203
0.380752
0.380302
0.379853
0.379405
0.378958
0.378512
0.378067
0.377623
0.377181
0.376739
0.376298
0.375858
0.375419
0.374981
0.374544
0.374108
0.373674
0.37324
0.372807
0.372374
0.371943
0.371513
0.371084
0.370656
0.370228
0.369802
0.369376
0.368952
0.368528
0.368105
0.367683
0.367262
0.366842
0.366423
0.366005
0.365588
0.365171
0.364755
0.364341
0.363927
0.363514
0.363102
0.362691
0.362281
0.361871
0.361463
0.361055
0.360648
0.360242
0.359837
0.359433
0.35903
0.358628
0.358226
0.357826
0.357426
0.357027
0.356629
0.356232
0.355836
0.355441
0.355046
0.354653
0.35426
0.353869
0.353478
0.353088
0.352699
0.352311
0.351924
0.351538
0.351152
0.350768
0.350384
0.350002
0.34962
0.349239
0.34886
0.348481
0.348103
0.347726
0.34735
0.346974
0.3466
0.346227
0.345854
0.345483
0.345114
0.344752
0.344409
0.344139
0.377291
0.380856
0.385399
0.391002
0.397648
0.405209
0.41346
0.422132
0.430969
0.43975
0.4483
0.45649
0.464234
0.471479
0.478204
0.484406
0.490095
0.495294
0.500029
0.504329
0.508226
0.511749
0.514929
0.517794
0.520371
0.522683
0.524754
0.526604
0.528252
0.529716
0.531012
0.532153
0.533152
0.534022
0.534773
0.535415
0.535956
0.536405
0.536769
0.537054
0.537267
0.537414
0.537498
0.537526
0.537501
0.537426
0.537307
0.537145
0.536944
0.536706
0.536435
0.536133
0.5358
0.535441
0.535056
0.534648
0.534217
0.533766
0.533295
0.532806
0.532301
0.531779
0.531243
0.530693
0.53013
0.529556
0.528969
0.528373
0.527766
0.527151
0.526526
0.525894
0.525254
0.524607
0.523953
0.523293
0.522628
0.521957
0.521281
0.520601
0.519916
0.519228
0.518535
0.517839
0.51714
0.516438
0.515734
0.515026
0.514317
0.513605
0.512892
0.512177
0.51146
0.510742
0.510022
0.509302
0.50858
0.507858
0.507135
0.506411
0.505687
0.504962
0.504237
0.503512
0.502787
0.502062
0.501337
0.500612
0.499887
0.499162
0.498438
0.497714
0.496991
0.496268
0.495546
0.494825
0.494104
0.493384
0.492664
0.491946
0.491228
0.490511
0.489796
0.489081
0.488367
0.487654
0.486942
0.486232
0.485522
0.484814
0.484107
0.483401
0.482697
0.481993
0.481291
0.480591
0.479891
0.479193
0.478496
0.477801
0.477107
0.476415
0.475724
0.475034
0.474346
0.473659
0.472974
0.47229
0.471608
0.470927
0.470248
0.46957
0.468894
0.468219
0.467546
0.466875
0.466205
0.465536
0.46487
0.464204
0.463541
0.462879
0.462218
0.46156
0.460902
0.460247
0.459593
0.458941
0.45829
0.457641
0.456993
0.456348
0.455703
0.455061
0.45442
0.453781
0.453143
0.452507
0.451873
0.45124
0.450609
0.44998
0.449352
0.448726
0.448101
0.447478
0.446857
0.446237
0.445619
0.445003
0.444388
0.443775
0.443164
0.442554
0.441946
0.441339
0.440734
0.440131
0.43953
0.438929
0.438331
0.437734
0.437139
0.436545
0.435953
0.435363
0.434774
0.434187
0.433601
0.433017
0.432434
0.431854
0.431274
0.430696
0.43012
0.429545
0.428972
0.428401
0.427831
0.427262
0.426695
0.42613
0.425566
0.425004
0.424443
0.423884
0.423326
0.42277
0.422215
0.421662
0.42111
0.42056
0.420011
0.419463
0.418918
0.418373
0.41783
0.417289
0.416749
0.41621
0.415673
0.415137
0.414603
0.41407
0.413539
0.413009
0.41248
0.411953
0.411427
0.410902
0.410379
0.409858
0.409337
0.408818
0.408301
0.407785
0.40727
0.406756
0.406244
0.405733
0.405223
0.404715
0.404208
0.403703
0.403198
0.402695
0.402194
0.401693
0.401194
0.400696
0.4002
0.399704
0.39921
0.398717
0.398226
0.397735
0.397246
0.396758
0.396272
0.395786
0.395302
0.394819
0.394337
0.393856
0.393377
0.392898
0.392421
0.391945
0.391471
0.390997
0.390524
0.390053
0.389583
0.389114
0.388646
0.388179
0.387713
0.387249
0.386785
0.386323
0.385862
0.385402
0.384942
0.384484
0.384027
0.383572
0.383117
0.382663
0.38221
0.381759
0.381308
0.380858
0.38041
0.379962
0.379516
0.37907
0.378626
0.378182
0.37774
0.377298
0.376858
0.376418
0.375979
0.375542
0.375105
0.374669
0.374235
0.373801
0.373368
0.372936
0.372505
0.372075
0.371646
0.371218
0.37079
0.370364
0.369939
0.369514
0.36909
0.368668
0.368246
0.367825
0.367405
0.366986
0.366567
0.36615
0.365734
0.365318
0.364903
0.364489
0.364076
0.363664
0.363253
0.362843
0.362433
0.362025
0.361617
0.36121
0.360804
0.360399
0.359995
0.359591
0.359189
0.358787
0.358386
0.357987
0.357588
0.35719
0.356792
0.356396
0.356001
0.355606
0.355212
0.35482
0.354428
0.354037
0.353647
0.353258
0.352869
0.352482
0.352096
0.35171
0.351326
0.350942
0.350559
0.350177
0.349796
0.349416
0.349037
0.348659
0.348282
0.347905
0.34753
0.347155
0.346782
0.34641
0.34604
0.345676
0.345332
0.345061
0.37629
0.378226
0.380644
0.383627
0.387247
0.391536
0.396464
0.401953
0.407893
0.414161
0.42063
0.427184
0.433716
0.440141
0.44639
0.452411
0.458168
0.463637
0.468804
0.473664
0.478219
0.482473
0.486436
0.490119
0.493534
0.496696
0.499617
0.502312
0.504795
0.507078
0.509173
0.511094
0.512852
0.514456
0.515918
0.517246
0.51845
0.519538
0.520517
0.521395
0.522178
0.522873
0.523484
0.524018
0.524479
0.524873
0.525202
0.525472
0.525686
0.525848
0.52596
0.526026
0.526048
0.52603
0.525973
0.52588
0.525753
0.525594
0.525404
0.525187
0.524942
0.524672
0.524378
0.524062
0.523725
0.523367
0.522991
0.522597
0.522186
0.521758
0.521316
0.52086
0.52039
0.519907
0.519412
0.518906
0.51839
0.517863
0.517326
0.51678
0.516226
0.515663
0.515093
0.514516
0.513931
0.513341
0.512744
0.512141
0.511533
0.51092
0.510302
0.509679
0.509053
0.508422
0.507787
0.507149
0.506507
0.505862
0.505215
0.504564
0.503911
0.503256
0.502598
0.501939
0.501277
0.500614
0.499949
0.499283
0.498615
0.497946
0.497276
0.496605
0.495933
0.49526
0.494586
0.493912
0.493237
0.492562
0.491887
0.491211
0.490535
0.489858
0.489182
0.488506
0.48783
0.487154
0.486478
0.485802
0.485127
0.484451
0.483777
0.483102
0.482429
0.481755
0.481083
0.480411
0.479739
0.479068
0.478398
0.477729
0.477061
0.476393
0.475726
0.47506
0.474395
0.473731
0.473068
0.472406
0.471744
0.471084
0.470425
0.469767
0.46911
0.468454
0.4678
0.467146
0.466494
0.465843
0.465193
0.464544
0.463896
0.46325
0.462605
0.461961
0.461319
0.460677
0.460037
0.459399
0.458762
0.458126
0.457491
0.456858
0.456226
0.455595
0.454966
0.454339
0.453712
0.453087
0.452464
0.451842
0.451221
0.450602
0.449984
0.449367
0.448752
0.448139
0.447526
0.446916
0.446307
0.445699
0.445092
0.444488
0.443884
0.443282
0.442682
0.442083
0.441485
0.440889
0.440294
0.439701
0.439109
0.438519
0.43793
0.437343
0.436757
0.436173
0.43559
0.435009
0.434429
0.43385
0.433273
0.432697
0.432123
0.431551
0.430979
0.43041
0.429841
0.429275
0.428709
0.428145
0.427583
0.427022
0.426462
0.425904
0.425347
0.424792
0.424238
0.423685
0.423134
0.422585
0.422037
0.42149
0.420944
0.4204
0.419858
0.419316
0.418777
0.418238
0.417701
0.417165
0.416631
0.416098
0.415567
0.415036
0.414508
0.41398
0.413454
0.412929
0.412406
0.411884
0.411363
0.410843
0.410325
0.409808
0.409293
0.408778
0.408266
0.407754
0.407244
0.406734
0.406227
0.40572
0.405215
0.404711
0.404208
0.403707
0.403207
0.402708
0.40221
0.401713
0.401218
0.400724
0.400231
0.39974
0.399249
0.39876
0.398272
0.397785
0.3973
0.396815
0.396332
0.39585
0.395369
0.394889
0.394411
0.393933
0.393457
0.392982
0.392508
0.392035
0.391563
0.391092
0.390623
0.390154
0.389687
0.389221
0.388755
0.388291
0.387828
0.387367
0.386906
0.386446
0.385987
0.38553
0.385073
0.384617
0.384163
0.383709
0.383257
0.382806
0.382355
0.381906
0.381457
0.38101
0.380563
0.380118
0.379674
0.37923
0.378788
0.378346
0.377906
0.377466
0.377028
0.37659
0.376153
0.375717
0.375283
0.374849
0.374416
0.373984
0.373553
0.373122
0.372693
0.372265
0.371837
0.371411
0.370985
0.37056
0.370136
0.369713
0.369291
0.36887
0.36845
0.36803
0.367611
0.367194
0.366777
0.366361
0.365946
0.365531
0.365118
0.364705
0.364294
0.363883
0.363473
0.363064
0.362656
0.362248
0.361842
0.361436
0.361031
0.360627
0.360224
0.359822
0.359421
0.35902
0.358621
0.358222
0.357824
0.357427
0.357031
0.356636
0.356241
0.355848
0.355455
0.355064
0.354673
0.354283
0.353894
0.353506
0.353119
0.352732
0.352347
0.351963
0.351579
0.351196
0.350815
0.350434
0.350054
0.349675
0.349297
0.34892
0.348543
0.348168
0.347794
0.347421
0.34705
0.346685
0.34634
0.346069
0.375763
0.376876
0.378229
0.37987
0.381853
0.384231
0.387033
0.390263
0.393904
0.397918
0.402253
0.406849
0.411641
0.416563
0.421553
0.426557
0.431525
0.436416
0.441196
0.445839
0.450325
0.454638
0.458769
0.462712
0.466463
0.470023
0.473393
0.476577
0.47958
0.482406
0.485062
0.487554
0.48989
0.492075
0.494117
0.496023
0.497799
0.499451
0.500986
0.502409
0.503727
0.504945
0.506068
0.507101
0.508049
0.508917
0.509708
0.510427
0.511077
0.511662
0.512186
0.512651
0.513061
0.513419
0.513727
0.513988
0.514204
0.514378
0.514512
0.514607
0.514666
0.51469
0.514682
0.514643
0.514574
0.514477
0.514353
0.514204
0.51403
0.513834
0.513615
0.513376
0.513117
0.512839
0.512543
0.51223
0.5119
0.511555
0.511195
0.510821
0.510434
0.510034
0.509621
0.509197
0.508762
0.508316
0.50786
0.507394
0.506919
0.506436
0.505944
0.505444
0.504937
0.504423
0.503901
0.503373
0.502839
0.502299
0.501753
0.501202
0.500646
0.500085
0.49952
0.49895
0.498376
0.497798
0.497216
0.496631
0.496042
0.49545
0.494855
0.494258
0.493657
0.493054
0.492449
0.491841
0.491232
0.49062
0.490007
0.489391
0.488774
0.488156
0.487536
0.486915
0.486293
0.485669
0.485045
0.48442
0.483794
0.483167
0.482539
0.481911
0.481282
0.480653
0.480023
0.479393
0.478763
0.478132
0.477501
0.476871
0.47624
0.475609
0.474978
0.474348
0.473717
0.473087
0.472457
0.471827
0.471198
0.470569
0.46994
0.469312
0.468684
0.468057
0.467431
0.466804
0.466179
0.465554
0.46493
0.464307
0.463684
0.463062
0.462441
0.46182
0.4612
0.460582
0.459964
0.459347
0.458731
0.458115
0.457501
0.456888
0.456275
0.455664
0.455054
0.454444
0.453836
0.453229
0.452623
0.452018
0.451414
0.450811
0.450209
0.449608
0.449009
0.44841
0.447813
0.447217
0.446622
0.446029
0.445436
0.444845
0.444255
0.443666
0.443078
0.442492
0.441907
0.441323
0.44074
0.440158
0.439578
0.438999
0.438422
0.437845
0.43727
0.436696
0.436124
0.435552
0.434982
0.434414
0.433846
0.43328
0.432715
0.432152
0.431589
0.431028
0.430469
0.42991
0.429353
0.428797
0.428243
0.42769
0.427138
0.426587
0.426038
0.42549
0.424943
0.424398
0.423854
0.423311
0.422769
0.422229
0.42169
0.421153
0.420616
0.420081
0.419547
0.419015
0.418484
0.417954
0.417425
0.416898
0.416372
0.415847
0.415323
0.414801
0.41428
0.41376
0.413241
0.412724
0.412208
0.411693
0.411179
0.410667
0.410156
0.409646
0.409137
0.40863
0.408123
0.407618
0.407114
0.406612
0.40611
0.40561
0.405111
0.404613
0.404116
0.403621
0.403127
0.402634
0.402142
0.401651
0.401161
0.400673
0.400185
0.399699
0.399214
0.39873
0.398247
0.397766
0.397285
0.396806
0.396327
0.39585
0.395374
0.394899
0.394425
0.393952
0.393481
0.39301
0.39254
0.392072
0.391605
0.391138
0.390673
0.390209
0.389746
0.389283
0.388822
0.388362
0.387903
0.387445
0.386988
0.386532
0.386077
0.385624
0.385171
0.384719
0.384268
0.383818
0.383369
0.382921
0.382474
0.382028
0.381583
0.381139
0.380695
0.380253
0.379812
0.379372
0.378932
0.378494
0.378056
0.37762
0.377184
0.376749
0.376315
0.375882
0.37545
0.375019
0.374589
0.37416
0.373731
0.373304
0.372877
0.372451
0.372026
0.371602
0.371179
0.370756
0.370335
0.369914
0.369494
0.369075
0.368657
0.36824
0.367824
0.367408
0.366993
0.366579
0.366166
0.365754
0.365343
0.364932
0.364523
0.364114
0.363706
0.363299
0.362892
0.362487
0.362082
0.361679
0.361276
0.360873
0.360472
0.360072
0.359672
0.359274
0.358876
0.358479
0.358083
0.357687
0.357293
0.356899
0.356507
0.356115
0.355724
0.355334
0.354945
0.354557
0.354169
0.353783
0.353397
0.353013
0.352629
0.352246
0.351864
0.351483
0.351102
0.350723
0.350345
0.349967
0.349591
0.349215
0.34884
0.348467
0.348096
0.34773
0.347385
0.347113
0.375453
0.376105
0.376886
0.377816
0.378925
0.38025
0.381821
0.383661
0.385785
0.388194
0.390881
0.39383
0.397015
0.400407
0.403972
0.407672
0.411473
0.415339
0.419238
0.42314
0.42702
0.430853
0.434622
0.43831
0.441904
0.445393
0.44877
0.452029
0.455166
0.458178
0.461064
0.463825
0.466461
0.468974
0.471366
0.473639
0.475797
0.477843
0.479781
0.481613
0.483343
0.484976
0.486514
0.487962
0.489322
0.490599
0.491796
0.492916
0.493962
0.494937
0.495845
0.496688
0.497469
0.498191
0.498856
0.499467
0.500026
0.500535
0.500997
0.501413
0.501786
0.502117
0.502409
0.502662
0.502879
0.503061
0.50321
0.503326
0.503412
0.503469
0.503498
0.5035
0.503476