/*--------------------------------*- C++ -*----------------------------------*\
| =========                 |                                                 |
| \\      /  F ield         | OpenFOAM: The Open Source CFD Toolbox           |
|  \\    /   O peration     | Version:  2506                                  |
|   \\  /    A nd           | Website:  www.openfoam.com                      |
|    \\/     M anipulation  |                                                 |
\*---------------------------------------------------------------------------*/
FoamFile
{
    version     2.0;
    format      ascii;
    arch        "LSB;label=32;scalar=64";
    class       volScalarField;
    location    "600";
    object      nut;
}
// * * * * * * * * * * * * * * * * * * * * * * * * * * * * * * * * * * * * * //

dimensions      [0 2 -1 0 0 0 0];

internalField   nonuniform List<scalar> 
131949
(
0.0659348
0.068194
0.0682839
0.0682257
0.0682935
0.068426
0.0685771
0.0687316
0.0688828
0.0690269
0.0691624
0.0692894
0.0694082
0.0695195
0.069624
0.0697222
0.0698147
0.0699021
0.0699847
0.0700631
0.0701375
0.0702083
0.0702758
0.0703402
0.0704018
0.0704608
0.0705173
0.0705715
0.0706237
0.0706739
0.0707222
0.0707687
0.0708137
0.0708571
0.0708991
0.0709397
0.070979
0.0710171
0.071054
0.0710899
0.0711247
0.0711585
0.0711914
0.0712234
0.0712545
0.0712848
0.0713143
0.0713431
0.0713712
0.0713986
0.0714253
0.0714514
0.0714769
0.0715018
0.0715262
0.0715501
0.0715734
0.0715962
0.0716185
0.0716404
0.0716619
0.0716829
0.0717035
0.0717237
0.0717435
0.0717629
0.071782
0.0718007
0.0718191
0.0718372
0.0718549
0.0718724
0.0718895
0.0719063
0.0719229
0.0719392
0.0719552
0.0719709
0.0719864
0.0720017
0.0720167
0.0720315
0.0720461
0.0720604
0.0720746
0.0720885
0.0721022
0.0721157
0.0721291
0.0721422
0.0721552
0.0721679
0.0721805
0.072193
0.0722052
0.0722173
0.0722293
0.0722411
0.0722527
0.0722642
0.0722755
0.0722867
0.0722978
0.0723087
0.0723195
0.0723302
0.0723407
0.0723511
0.0723614
0.0723716
0.0723816
0.0723916
0.0724014
0.0724111
0.0724207
0.0724302
0.0724396
0.0724489
0.0724581
0.0724672
0.0724762
0.0724851
0.0724939
0.0725026
0.0725112
0.0725198
0.0725282
0.0725366
0.0725449
0.0725531
0.0725612
0.0725692
0.0725772
0.0725851
0.0725929
0.0726007
0.0726083
0.0726159
0.0726234
0.0726309
0.0726383
0.0726456
0.0726529
0.0726601
0.0726672
0.0726743
0.0726813
0.0726882
0.0726951
0.0727019
0.0727087
0.0727154
0.0727221
0.0727287
0.0727352
0.0727417
0.0727482
0.0727546
0.0727609
0.0727672
0.0727734
0.0727796
0.0727858
0.0727919
0.0727979
0.0728039
0.0728099
0.0728158
0.0728217
0.0728275
0.0728333
0.0728391
0.0728448
0.0728504
0.0728561
0.0728617
0.0728672
0.0728727
0.0728782
0.0728836
0.072889
0.0728944
0.0728997
0.072905
0.0729103
0.0729155
0.0729207
0.0729258
0.0729309
0.072936
0.0729411
0.0729461
0.0729511
0.0729561
0.072961
0.0729659
0.0729708
0.0729757
0.0729805
0.0729853
0.07299
0.0729948
0.0729995
0.0730041
0.0730088
0.0730134
0.073018
0.0730226
0.0730272
0.0730317
0.0730362
0.0730407
0.0730451
0.0730495
0.0730539
0.0730583
0.0730627
0.073067
0.0730713
0.0730756
0.0730798
0.0730841
0.0730883
0.0730925
0.0730967
0.0731008
0.0731049
0.073109
0.0731131
0.0731172
0.0731212
0.0731252
0.0731292
0.0731332
0.0731371
0.0731411
0.073145
0.0731489
0.0731527
0.0731566
0.0731604
0.0731642
0.073168
0.0731717
0.0731755
0.0731792
0.0731829
0.0731865
0.0731902
0.0731938
0.0731974
0.073201
0.0732046
0.0732081
0.0732116
0.0732151
0.0732186
0.073222
0.0732255
0.0732289
0.0732323
0.0732356
0.0732389
0.0732423
0.0732456
0.0732488
0.0732521
0.0732553
0.0732585
0.0732617
0.0732648
0.0732679
0.073271
0.0732741
0.0732772
0.0732802
0.0732832
0.0732862
0.0732891
0.0732921
0.073295
0.0732978
0.0733007
0.0733035
0.0733063
0.0733091
0.0733119
0.0733146
0.0733173
0.0733199
0.0733226
0.0733252
0.0733278
0.0733303
0.0733329
0.0733354
0.0733379
0.0733403
0.0733427
0.0733451
0.0733475
0.0733498
0.0733521
0.0733544
0.0733566
0.0733589
0.073361
0.0733632
0.0733653
0.0733674
0.0733695
0.0733715
0.0733735
0.0733754
0.0733774
0.0733793
0.0733811
0.073383
0.0733847
0.0733865
0.0733882
0.0733899
0.0733916
0.0733932
0.0733948
0.0733964
0.0733979
0.0733994
0.0734008
0.0734023
0.0734036
0.073405
0.0734063
0.0734076
0.0734088
0.07341
0.0734112
0.0734124
0.0734135
0.0734146
0.0734156
0.0734166
0.0734176
0.0734186
0.0734195
0.0734204
0.0734213
0.0734221
0.0734229
0.0734237
0.0734245
0.0734252
0.0734259
0.0734266
0.0734273
0.073428
0.0734286
0.0734292
0.0734298
0.0734304
0.073431
0.0734316
0.0734322
0.0734327
0.0734333
0.0734338
0.0734344
0.0734349
0.0734355
0.0734361
0.0734366
0.0734372
0.0734378
0.0734384
0.073439
0.0734396
0.0734402
0.0734409
0.0734415
0.0734422
0.073443
0.0734437
0.0734445
0.0734453
0.0734461
0.0734469
0.0734478
0.0734487
0.0734497
0.0734507
0.0734517
0.0734527
0.0734538
0.0734549
0.0734561
0.0734574
0.073459
0.0734615
0.0734664
0.0734752
0.0637129
0.066255
0.0678732
0.0686936
0.0691245
0.0693616
0.0694973
0.069589
0.0696653
0.0697364
0.069806
0.0698749
0.0699434
0.070011
0.0700774
0.0701423
0.0702056
0.070267
0.0703266
0.0703844
0.0704403
0.0704943
0.0705467
0.0705973
0.0706462
0.0706937
0.0707396
0.070784
0.0708271
0.0708689
0.0709094
0.0709487
0.0709869
0.0710239
0.07106
0.071095
0.0711291
0.0711623
0.0711946
0.071226
0.0712567
0.0712866
0.0713157
0.0713442
0.0713719
0.071399
0.0714255
0.0714514
0.0714767
0.0715015
0.0715257
0.0715494
0.0715726
0.0715953
0.0716175
0.0716393
0.0716607
0.0716816
0.0717022
0.0717223
0.0717421
0.0717615
0.0717805
0.0717992
0.0718176
0.0718356
0.0718534
0.0718708
0.0718879
0.0719047
0.0719213
0.0719376
0.0719536
0.0719694
0.0719849
0.0720001
0.0720152
0.07203
0.0720446
0.0720589
0.0720731
0.072087
0.0721007
0.0721143
0.0721276
0.0721408
0.0721538
0.0721666
0.0721792
0.0721916
0.0722039
0.072216
0.072228
0.0722398
0.0722515
0.072263
0.0722743
0.0722856
0.0722967
0.0723076
0.0723184
0.0723291
0.0723397
0.0723501
0.0723604
0.0723706
0.0723806
0.0723906
0.0724004
0.0724102
0.0724198
0.0724293
0.0724387
0.072448
0.0724573
0.0724664
0.0724754
0.0724843
0.0724931
0.0725019
0.0725105
0.0725191
0.0725275
0.0725359
0.0725442
0.0725525
0.0725606
0.0725687
0.0725766
0.0725845
0.0725924
0.0726001
0.0726078
0.0726154
0.072623
0.0726304
0.0726378
0.0726452
0.0726525
0.0726597
0.0726668
0.0726739
0.0726809
0.0726879
0.0726948
0.0727016
0.0727084
0.0727151
0.0727218
0.0727284
0.0727349
0.0727414
0.0727479
0.0727543
0.0727606
0.0727669
0.0727732
0.0727794
0.0727855
0.0727917
0.0727977
0.0728037
0.0728097
0.0728156
0.0728215
0.0728273
0.0728331
0.0728389
0.0728446
0.0728502
0.0728559
0.0728615
0.072867
0.0728725
0.072878
0.0728834
0.0728888
0.0728942
0.0728995
0.0729048
0.0729101
0.0729153
0.0729205
0.0729256
0.0729308
0.0729359
0.0729409
0.0729459
0.0729509
0.0729559
0.0729608
0.0729657
0.0729706
0.0729755
0.0729803
0.0729851
0.0729898
0.0729946
0.0729993
0.0730039
0.0730086
0.0730132
0.0730178
0.0730224
0.0730269
0.0730315
0.073036
0.0730404
0.0730449
0.0730493
0.0730537
0.0730581
0.0730624
0.0730668
0.0730711
0.0730754
0.0730796
0.0730839
0.0730881
0.0730923
0.0730964
0.0731006
0.0731047
0.0731088
0.0731129
0.073117
0.073121
0.073125
0.073129
0.073133
0.073137
0.0731409
0.0731448
0.0731487
0.0731526
0.0731564
0.0731603
0.0731641
0.0731679
0.0731716
0.0731754
0.0731791
0.0731828
0.0731865
0.0731902
0.0731938
0.0731974
0.073201
0.0732046
0.0732082
0.0732117
0.0732152
0.0732187
0.0732222
0.0732257
0.0732291
0.0732325
0.0732359
0.0732392
0.0732426
0.0732459
0.0732492
0.0732525
0.0732557
0.073259
0.0732622
0.0732654
0.0732685
0.0732717
0.0732748
0.0732779
0.0732809
0.073284
0.073287
0.07329
0.073293
0.0732959
0.0732988
0.0733017
0.0733046
0.0733075
0.0733103
0.0733131
0.0733159
0.0733186
0.0733213
0.073324
0.0733267
0.0733293
0.073332
0.0733346
0.0733371
0.0733397
0.0733422
0.0733447
0.0733471
0.0733495
0.0733519
0.0733543
0.0733567
0.073359
0.0733613
0.0733635
0.0733657
0.0733679
0.0733701
0.0733722
0.0733743
0.0733764
0.0733785
0.0733805
0.0733824
0.0733844
0.0733863
0.0733882
0.07339
0.0733919
0.0733936
0.0733954
0.0733971
0.0733988
0.0734005
0.0734021
0.0734037
0.0734052
0.0734067
0.0734082
0.0734096
0.073411
0.0734124
0.0734138
0.0734151
0.0734163
0.0734176
0.0734188
0.07342
0.0734211
0.0734222
0.0734233
0.0734243
0.0734253
0.0734263
0.0734273
0.0734282
0.0734291
0.0734299
0.0734307
0.0734316
0.0734323
0.0734331
0.0734338
0.0734345
0.0734352
0.0734359
0.0734365
0.0734371
0.0734377
0.0734383
0.0734389
0.0734395
0.07344
0.0734406
0.0734411
0.0734416
0.0734422
0.0734427
0.0734432
0.0734437
0.0734443
0.0734448
0.0734453
0.0734459
0.0734464
0.073447
0.0734476
0.0734482
0.0734488
0.0734494
0.0734501
0.0734508
0.0734515
0.0734522
0.0734529
0.0734537
0.0734545
0.0734553
0.0734562
0.0734571
0.073458
0.073459
0.07346
0.073461
0.0734621
0.0734632
0.0734643
0.0734656
0.0734672
0.0734697
0.0734746
0.0734833
0.0627756
0.0647438
0.0664136
0.0676594
0.0685604
0.069196
0.0696294
0.0699228
0.0701254
0.0702697
0.0703766
0.0704596
0.0705275
0.0705855
0.0706371
0.0706844
0.0707286
0.0707705
0.0708107
0.0708496
0.0708873
0.070924
0.0709598
0.0709947
0.0710289
0.0710622
0.0710949
0.0711268
0.0711581
0.0711887
0.0712186
0.0712479
0.0712766
0.0713047
0.0713322
0.0713591
0.0713855
0.0714114
0.0714367
0.0714616
0.0714859
0.0715098
0.0715331
0.0715561
0.0715786
0.0716007
0.0716224
0.0716436
0.0716645
0.071685
0.0717051
0.0717249
0.0717443
0.0717634
0.0717821
0.0718006
0.0718187
0.0718365
0.071854
0.0718712
0.0718882
0.0719049
0.0719213
0.0719374
0.0719533
0.071969
0.0719844
0.0719996
0.0720145
0.0720293
0.0720438
0.0720581
0.0720722
0.0720861
0.0720998
0.0721133
0.0721266
0.0721397
0.0721527
0.0721655
0.0721781
0.0721905
0.0722028
0.0722149
0.0722269
0.0722387
0.0722503
0.0722619
0.0722732
0.0722844
0.0722955
0.0723065
0.0723173
0.072328
0.0723386
0.072349
0.0723593
0.0723695
0.0723796
0.0723896
0.0723995
0.0724092
0.0724189
0.0724284
0.0724378
0.0724472
0.0724564
0.0724655
0.0724746
0.0724835
0.0724923
0.0725011
0.0725098
0.0725183
0.0725268
0.0725352
0.0725436
0.0725518
0.07256
0.072568
0.0725761
0.072584
0.0725918
0.0725996
0.0726073
0.0726149
0.0726225
0.07263
0.0726374
0.0726448
0.0726521
0.0726593
0.0726664
0.0726735
0.0726806
0.0726876
0.0726945
0.0727013
0.0727081
0.0727149
0.0727215
0.0727282
0.0727347
0.0727413
0.0727477
0.0727541
0.0727605
0.0727668
0.0727731
0.0727793
0.0727854
0.0727916
0.0727976
0.0728036
0.0728096
0.0728155
0.0728214
0.0728273
0.0728331
0.0728388
0.0728445
0.0728502
0.0728558
0.0728614
0.072867
0.0728725
0.072878
0.0728834
0.0728888
0.0728942
0.0728995
0.0729048
0.07291
0.0729153
0.0729205
0.0729256
0.0729307
0.0729358
0.0729409
0.0729459
0.0729509
0.0729558
0.0729608
0.0729657
0.0729705
0.0729754
0.0729802
0.072985
0.0729897
0.0729945
0.0729992
0.0730038
0.0730085
0.0730131
0.0730177
0.0730223
0.0730268
0.0730313
0.0730358
0.0730403
0.0730447
0.0730491
0.0730535
0.0730579
0.0730623
0.0730666
0.0730709
0.0730752
0.0730794
0.0730837
0.0730879
0.0730921
0.0730962
0.0731004
0.0731045
0.0731086
0.0731127
0.0731168
0.0731208
0.0731248
0.0731288
0.0731328
0.0731368
0.0731407
0.0731446
0.0731485
0.0731524
0.0731563
0.0731601
0.073164
0.0731678
0.0731716
0.0731753
0.0731791
0.0731828
0.0731865
0.0731902
0.0731939
0.0731975
0.0732011
0.0732047
0.0732083
0.0732119
0.0732155
0.073219
0.0732225
0.073226
0.0732295
0.0732329
0.0732363
0.0732398
0.0732431
0.0732465
0.0732499
0.0732532
0.0732565
0.0732598
0.0732631
0.0732663
0.0732695
0.0732727
0.0732759
0.0732791
0.0732822
0.0732853
0.0732884
0.0732915
0.0732946
0.0732976
0.0733006
0.0733036
0.0733065
0.0733095
0.0733124
0.0733153
0.0733182
0.073321
0.0733238
0.0733266
0.0733294
0.0733322
0.0733349
0.0733376
0.0733403
0.0733429
0.0733455
0.0733481
0.0733507
0.0733533
0.0733558
0.0733583
0.0733608
0.0733632
0.0733656
0.073368
0.0733704
0.0733727
0.0733751
0.0733773
0.0733796
0.0733818
0.073384
0.0733862
0.0733883
0.0733904
0.0733925
0.0733946
0.0733966
0.0733986
0.0734005
0.0734025
0.0734044
0.0734062
0.0734081
0.0734099
0.0734117
0.0734134
0.0734151
0.0734168
0.0734184
0.07342
0.0734216
0.0734231
0.0734246
0.0734261
0.0734275
0.073429
0.0734303
0.0734317
0.073433
0.0734342
0.0734355
0.0734367
0.0734378
0.073439
0.0734401
0.0734411
0.0734422
0.0734432
0.0734441
0.0734451
0.073446
0.0734469
0.0734477
0.0734485
0.0734493
0.0734501
0.0734508
0.0734515
0.0734522
0.0734529
0.0734535
0.0734541
0.0734547
0.0734553
0.0734559
0.0734564
0.0734569
0.0734575
0.073458
0.0734585
0.0734589
0.0734594
0.0734599
0.0734604
0.0734608
0.0734613
0.0734618
0.0734622
0.0734627
0.0734632
0.0734637
0.0734642
0.0734647
0.0734652
0.0734658
0.0734663
0.0734669
0.0734675
0.0734681
0.0734688
0.0734695
0.0734702
0.0734709
0.0734716
0.0734724
0.0734732
0.0734741
0.073475
0.0734759
0.0734768
0.0734778
0.0734788
0.0734799
0.073481
0.0734823
0.0734838
0.0734863
0.0734911
0.0734998
0.0620602
0.063308
0.0646078
0.0658342
0.0669193
0.0678343
0.0685744
0.0691571
0.0696102
0.0699611
0.0702329
0.0704448
0.0706117
0.070745
0.0708531
0.0709423
0.0710171
0.0710811
0.0711367
0.0711858
0.0712299
0.0712699
0.0713067
0.0713408
0.0713729
0.0714031
0.0714318
0.0714593
0.0714856
0.071511
0.0715355
0.0715593
0.0715824
0.0716049
0.0716268
0.0716482
0.0716691
0.0716896
0.0717096
0.0717292
0.0717485
0.0717674
0.0717859
0.0718041
0.071822
0.0718396
0.0718569
0.0718739
0.0718906
0.0719071
0.0719233
0.0719393
0.071955
0.0719705
0.0719857
0.0720007
0.0720155
0.0720301
0.0720445
0.0720587
0.0720727
0.0720865
0.0721001
0.0721135
0.0721267
0.0721398
0.0721526
0.0721653
0.0721779
0.0721903
0.0722025
0.0722146
0.0722265
0.0722383
0.0722499
0.0722614
0.0722727
0.0722839
0.072295
0.0723059
0.0723167
0.0723274
0.072338
0.0723484
0.0723587
0.0723689
0.072379
0.072389
0.0723989
0.0724086
0.0724183
0.0724278
0.0724373
0.0724466
0.0724558
0.072465
0.072474
0.072483
0.0724919
0.0725006
0.0725093
0.0725179
0.0725264
0.0725348
0.0725432
0.0725514
0.0725596
0.0725677
0.0725757
0.0725837
0.0725916
0.0725994
0.0726071
0.0726147
0.0726223
0.0726298
0.0726373
0.0726447
0.072652
0.0726592
0.0726664
0.0726735
0.0726806
0.0726876
0.0726945
0.0727014
0.0727082
0.0727149
0.0727216
0.0727283
0.0727349
0.0727414
0.0727479
0.0727543
0.0727607
0.072767
0.0727733
0.0727795
0.0727857
0.0727918
0.0727979
0.0728039
0.0728099
0.0728159
0.0728218
0.0728276
0.0728334
0.0728392
0.0728449
0.0728506
0.0728562
0.0728618
0.0728674
0.0728729
0.0728784
0.0728838
0.0728892
0.0728946
0.0728999
0.0729052
0.0729104
0.0729157
0.0729208
0.072926
0.0729311
0.0729362
0.0729412
0.0729463
0.0729512
0.0729562
0.0729611
0.072966
0.0729709
0.0729757
0.0729805
0.0729853
0.07299
0.0729947
0.0729994
0.0730041
0.0730087
0.0730133
0.0730179
0.0730225
0.073027
0.0730315
0.073036
0.0730404
0.0730449
0.0730493
0.0730536
0.073058
0.0730623
0.0730666
0.0730709
0.0730752
0.0730794
0.0730837
0.0730879
0.073092
0.0730962
0.0731003
0.0731044
0.0731085
0.0731126
0.0731167
0.0731207
0.0731247
0.0731287
0.0731327
0.0731367
0.0731406
0.0731445
0.0731484
0.0731523
0.0731562
0.07316
0.0731638
0.0731676
0.0731714
0.0731752
0.073179
0.0731827
0.0731864
0.0731901
0.0731938
0.0731975
0.0732011
0.0732047
0.0732084
0.073212
0.0732155
0.0732191
0.0732226
0.0732262
0.0732297
0.0732332
0.0732366
0.0732401
0.0732435
0.073247
0.0732504
0.0732537
0.0732571
0.0732605
0.0732638
0.0732671
0.0732704
0.0732737
0.0732769
0.0732802
0.0732834
0.0732866
0.0732898
0.0732929
0.0732961
0.0732992
0.0733023
0.0733054
0.0733084
0.0733115
0.0733145
0.0733175
0.0733205
0.0733235
0.0733264
0.0733293
0.0733322
0.0733351
0.073338
0.0733408
0.0733436
0.0733464
0.0733492
0.0733519
0.0733547
0.0733574
0.0733601
0.0733627
0.0733654
0.073368
0.0733706
0.0733731
0.0733757
0.0733782
0.0733807
0.0733832
0.0733856
0.073388
0.0733904
0.0733928
0.0733952
0.0733975
0.0733998
0.073402
0.0734043
0.0734065
0.0734087
0.0734109
0.073413
0.0734151
0.0734172
0.0734192
0.0734213
0.0734233
0.0734252
0.0734272
0.0734291
0.0734309
0.0734328
0.0734346
0.0734364
0.0734382
0.0734399
0.0734416
0.0734432
0.0734449
0.0734465
0.073448
0.0734496
0.0734511
0.0734525
0.073454
0.0734554
0.0734567
0.0734581
0.0734594
0.0734607
0.0734619
0.0734631
0.0734643
0.0734654
0.0734665
0.0734676
0.0734686
0.0734696
0.0734706
0.0734715
0.0734724
0.0734733
0.0734741
0.0734749
0.0734757
0.0734765
0.0734772
0.0734779
0.0734786
0.0734792
0.0734798
0.0734804
0.073481
0.0734815
0.0734821
0.0734826
0.0734831
0.0734835
0.073484
0.0734844
0.0734849
0.0734853
0.0734857
0.0734861
0.0734865
0.0734869
0.0734873
0.0734876
0.073488
0.0734884
0.0734888
0.0734892
0.0734896
0.07349
0.0734904
0.0734909
0.0734913
0.0734918
0.0734923
0.0734928
0.0734933
0.0734938
0.0734944
0.073495
0.0734956
0.0734963
0.073497
0.0734977
0.0734984
0.0734992
0.0735
0.0735009
0.0735017
0.0735026
0.0735036
0.0735046
0.0735056
0.0735068
0.0735083
0.0735107
0.0735155
0.0735242
0.0616763
0.0623976
0.0632484
0.0641755
0.0651192
0.0660283
0.0668644
0.0676064
0.0682488
0.0687958
0.0692564
0.0696416
0.0699631
0.0702313
0.0704557
0.0706441
0.0708032
0.0709384
0.0710541
0.0711538
0.0712404
0.0713162
0.071383
0.0714424
0.0714957
0.0715436
0.0715872
0.071627
0.0716637
0.0716975
0.0717291
0.0717585
0.0717862
0.0718123
0.071837
0.0718605
0.071883
0.0719044
0.071925
0.0719448
0.0719639
0.0719823
0.0720002
0.0720175
0.0720344
0.0720507
0.0720667
0.0720822
0.0720974
0.0721123
0.0721268
0.072141
0.0721549
0.0721686
0.072182
0.0721952
0.0722081
0.0722208
0.0722333
0.0722456
0.0722577
0.0722696
0.0722814
0.0722929
0.0723043
0.0723155
0.0723266
0.0723375
0.0723483
0.072359
0.0723695
0.0723798
0.0723901
0.0724002
0.0724101
0.07242
0.0724297
0.0724394
0.0724489
0.0724583
0.0724676
0.0724768
0.0724859
0.0724949
0.0725038
0.0725126
0.0725213
0.0725299
0.0725384
0.0725468
0.0725552
0.0725635
0.0725716
0.0725797
0.0725877
0.0725957
0.0726035
0.0726113
0.072619
0.0726267
0.0726342
0.0726417
0.0726492
0.0726565
0.0726638
0.072671
0.0726782
0.0726853
0.0726923
0.0726993
0.0727062
0.072713
0.0727198
0.0727265
0.0727332
0.0727398
0.0727464
0.0727529
0.0727593
0.0727657
0.0727721
0.0727784
0.0727846
0.0727908
0.0727969
0.072803
0.0728091
0.0728151
0.072821
0.0728269
0.0728328
0.0728386
0.0728444
0.0728501
0.0728558
0.0728614
0.072867
0.0728726
0.0728781
0.0728836
0.072889
0.0728944
0.0728997
0.0729051
0.0729104
0.0729156
0.0729208
0.072926
0.0729311
0.0729362
0.0729413
0.0729463
0.0729513
0.0729563
0.0729612
0.0729661
0.072971
0.0729758
0.0729807
0.0729854
0.0729902
0.0729949
0.0729996
0.0730043
0.0730089
0.0730135
0.0730181
0.0730226
0.0730272
0.0730316
0.0730361
0.0730406
0.073045
0.0730494
0.0730538
0.0730581
0.0730624
0.0730667
0.073071
0.0730752
0.0730795
0.0730837
0.0730879
0.073092
0.0730962
0.0731003
0.0731044
0.0731085
0.0731125
0.0731166
0.0731206
0.0731246
0.0731286
0.0731325
0.0731365
0.0731404
0.0731443
0.0731482
0.073152
0.0731559
0.0731597
0.0731635
0.0731673
0.0731711
0.0731749
0.0731786
0.0731823
0.073186
0.0731897
0.0731934
0.0731971
0.0732007
0.0732044
0.073208
0.0732116
0.0732152
0.0732187
0.0732223
0.0732258
0.0732293
0.0732328
0.0732363
0.0732398
0.0732433
0.0732467
0.0732501
0.0732536
0.0732569
0.0732603
0.0732637
0.0732671
0.0732704
0.0732737
0.073277
0.0732803
0.0732836
0.0732869
0.0732901
0.0732933
0.0732965
0.0732997
0.0733029
0.0733061
0.0733092
0.0733124
0.0733155
0.0733186
0.0733217
0.0733247
0.0733278
0.0733308
0.0733338
0.0733368
0.0733398
0.0733428
0.0733457
0.0733487
0.0733516
0.0733545
0.0733574
0.0733602
0.073363
0.0733659
0.0733687
0.0733715
0.0733742
0.073377
0.0733797
0.0733824
0.0733851
0.0733877
0.0733904
0.073393
0.0733956
0.0733982
0.0734008
0.0734033
0.0734058
0.0734083
0.0734108
0.0734132
0.0734157
0.0734181
0.0734205
0.0734228
0.0734252
0.0734275
0.0734298
0.0734321
0.0734343
0.0734365
0.0734387
0.0734409
0.073443
0.0734452
0.0734473
0.0734493
0.0734514
0.0734534
0.0734554
0.0734574
0.0734593
0.0734612
0.0734631
0.073465
0.0734668
0.0734686
0.0734704
0.0734721
0.0734738
0.0734755
0.0734772
0.0734788
0.0734804
0.073482
0.0734835
0.073485
0.0734865
0.0734879
0.0734893
0.0734907
0.073492
0.0734934
0.0734946
0.0734959
0.0734971
0.0734983
0.0734994
0.0735005
0.0735016
0.0735027
0.0735037
0.0735047
0.0735056
0.0735065
0.0735074
0.0735083
0.0735091
0.0735099
0.0735106
0.0735114
0.0735121
0.0735127
0.0735134
0.073514
0.0735146
0.0735151
0.0735157
0.0735162
0.0735167
0.0735171
0.0735176
0.073518
0.0735184
0.0735188
0.0735191
0.0735195
0.0735198
0.0735201
0.0735205
0.0735208
0.073521
0.0735213
0.0735216
0.0735219
0.0735222
0.0735225
0.0735227
0.073523
0.0735233
0.0735236
0.0735239
0.0735242
0.0735246
0.0735249
0.0735253
0.0735257
0.0735261
0.0735265
0.073527
0.0735274
0.0735279
0.0735285
0.073529
0.0735296
0.0735302
0.0735309
0.0735316
0.0735323
0.073533
0.0735338
0.0735347
0.0735355
0.0735364
0.0735374
0.0735385
0.0735399
0.0735422
0.0735469
0.0735555
0.0614873
0.0618997
0.0624111
0.0630134
0.0636872
0.0644048
0.0651352
0.0658501
0.0665284
0.0671565
0.0677273
0.0682387
0.0686924
0.069092
0.0694425
0.0697491
0.0700171
0.0702515
0.0704569
0.0706371
0.0707958
0.0709359
0.07106
0.0711705
0.0712691
0.0713574
0.071437
0.0715089
0.071574
0.0716334
0.0716877
0.0717374
0.0717833
0.0718256
0.0718649
0.0719014
0.0719355
0.0719674
0.0719974
0.0720256
0.0720522
0.0720774
0.0721013
0.072124
0.0721457
0.0721664
0.0721861
0.0722051
0.0722233
0.0722409
0.0722578
0.0722741
0.0722899
0.0723051
0.0723199
0.0723343
0.0723482
0.0723618
0.0723749
0.0723878
0.0724003
0.0724126
0.0724245
0.0724362
0.0724477
0.0724589
0.0724699
0.0724806
0.0724912
0.0725015
0.0725117
0.0725217
0.0725315
0.0725411
0.0725506
0.07256
0.0725692
0.0725783
0.0725872
0.072596
0.0726047
0.0726132
0.0726216
0.07263
0.0726382
0.0726463
0.0726543
0.0726622
0.07267
0.0726777
0.0726853
0.0726929
0.0727003
0.0727077
0.072715
0.0727222
0.0727293
0.0727364
0.0727433
0.0727502
0.0727571
0.0727638
0.0727705
0.0727772
0.0727837
0.0727902
0.0727967
0.072803
0.0728094
0.0728156
0.0728218
0.072828
0.0728341
0.0728401
0.0728461
0.072852
0.0728579
0.0728637
0.0728695
0.0728753
0.072881
0.0728866
0.0728922
0.0728977
0.0729032
0.0729087
0.0729141
0.0729195
0.0729248
0.0729301
0.0729354
0.0729406
0.0729458
0.0729509
0.072956
0.072961
0.0729661
0.0729711
0.072976
0.0729809
0.0729858
0.0729906
0.0729955
0.0730002
0.073005
0.0730097
0.0730144
0.073019
0.0730236
0.0730282
0.0730328
0.0730373
0.0730418
0.0730463
0.0730507
0.0730552
0.0730595
0.0730639
0.0730682
0.0730726
0.0730768
0.0730811
0.0730853
0.0730895
0.0730937
0.0730979
0.073102
0.0731061
0.0731102
0.0731143
0.0731183
0.0731224
0.0731264
0.0731303
0.0731343
0.0731382
0.0731422
0.0731461
0.0731499
0.0731538
0.0731576
0.0731615
0.0731653
0.073169
0.0731728
0.0731766
0.0731803
0.073184
0.0731877
0.0731914
0.073195
0.0731987
0.0732023
0.0732059
0.0732095
0.0732131
0.0732167
0.0732202
0.0732238
0.0732273
0.0732308
0.0732343
0.0732378
0.0732412
0.0732447
0.0732481
0.0732515
0.0732549
0.0732583
0.0732617
0.0732651
0.0732684
0.0732718
0.0732751
0.0732784
0.0732817
0.073285
0.0732883
0.0732915
0.0732948
0.073298
0.0733012
0.0733045
0.0733077
0.0733108
0.073314
0.0733172
0.0733203
0.0733234
0.0733266
0.0733297
0.0733328
0.0733358
0.0733389
0.073342
0.073345
0.073348
0.073351
0.073354
0.073357
0.07336
0.0733629
0.0733659
0.0733688
0.0733717
0.0733746
0.0733775
0.0733804
0.0733832
0.0733861
0.0733889
0.0733917
0.0733945
0.0733973
0.0734
0.0734028
0.0734055
0.0734082
0.0734109
0.0734136
0.0734162
0.0734189
0.0734215
0.0734241
0.0734267
0.0734293
0.0734319
0.0734344
0.0734369
0.0734394
0.0734419
0.0734444
0.0734468
0.0734492
0.0734516
0.073454
0.0734564
0.0734587
0.0734611
0.0734634
0.0734657
0.0734679
0.0734702
0.0734724
0.0734746
0.0734768
0.0734789
0.073481
0.0734832
0.0734852
0.0734873
0.0734893
0.0734914
0.0734934
0.0734953
0.0734973
0.0734992
0.0735011
0.073503
0.0735048
0.0735066
0.0735084
0.0735102
0.0735119
0.0735136
0.0735153
0.073517
0.0735186
0.0735202
0.0735218
0.0735233
0.0735248
0.0735263
0.0735278
0.0735292
0.0735306
0.073532
0.0735333
0.0735346
0.0735359
0.0735371
0.0735384
0.0735395
0.0735407
0.0735418
0.0735429
0.0735439
0.0735449
0.0735459
0.0735469
0.0735478
0.0735487
0.0735496
0.0735504
0.0735512
0.0735519
0.0735527
0.0735534
0.073554
0.0735547
0.0735553
0.0735559
0.0735564
0.0735569
0.0735574
0.0735579
0.0735583
0.0735587
0.0735591
0.0735595
0.0735598
0.0735601
0.0735604
0.0735607
0.073561
0.0735612
0.0735615
0.0735617
0.0735619
0.0735621
0.0735623
0.0735624
0.0735626
0.0735628
0.0735629
0.0735631
0.0735633
0.0735634
0.0735636
0.0735638
0.073564
0.0735642
0.0735644
0.0735646
0.0735648
0.0735651
0.0735654
0.0735657
0.073566
0.0735663
0.0735667
0.0735671
0.0735675
0.0735679
0.0735684
0.0735689
0.0735695
0.0735701
0.0735707
0.0735713
0.073572
0.0735727
0.0735735
0.0735743
0.0735752
0.0735762
0.0735775
0.0735797
0.0735843
0.0735928
0.0613929
0.0616395
0.0619447
0.0623136
0.0627464
0.0632374
0.0637743
0.0643412
0.0649214
0.0654994
0.0660623
0.0666002
0.0671066
0.0675774
0.068011
0.0684075
0.0687681
0.0690949
0.0693901
0.0696566
0.069897
0.0701138
0.0703095
0.0704863
0.0706463
0.0707913
0.0709229
0.0710427
0.071152
0.0712518
0.0713432
0.0714272
0.0715044
0.0715756
0.0716414
0.0717023
0.0717589
0.0718115
0.0718606
0.0719064
0.0719493
0.0719895
0.0720273
0.0720629
0.0720965
0.0721282
0.0721583
0.0721867
0.0722138
0.0722395
0.072264
0.0722873
0.0723097
0.072331
0.0723515
0.0723711
0.07239
0.0724081
0.0724255
0.0724424
0.0724586
0.0724743
0.0724894
0.0725041
0.0725183
0.0725321
0.0725454
0.0725584
0.0725711
0.0725833
0.0725953
0.0726069
0.0726183
0.0726294
0.0726402
0.0726507
0.0726611
0.0726712
0.0726811
0.0726907
0.0727002
0.0727095
0.0727186
0.0727275
0.0727363
0.0727449
0.0727534
0.0727617
0.0727698
0.0727779
0.0727858
0.0727935
0.0728012
0.0728087
0.0728161
0.0728235
0.0728307
0.0728378
0.0728448
0.0728517
0.0728585
0.0728652
0.0728719
0.0728784
0.0728849
0.0728913
0.0728976
0.0729038
0.07291
0.0729161
0.0729221
0.0729281
0.072934
0.0729398
0.0729456
0.0729513
0.0729569
0.0729625
0.072968
0.0729735
0.0729789
0.0729843
0.0729896
0.0729949
0.0730001
0.0730053
0.0730104
0.0730155
0.0730205
0.0730255
0.0730304
0.0730353
0.0730402
0.073045
0.0730498
0.0730545
0.0730592
0.0730639
0.0730685
0.0730731
0.0730776
0.0730821
0.0730866
0.0730911
0.0730955
0.0730999
0.0731042
0.0731085
0.0731128
0.0731171
0.0731213
0.0731255
0.0731297
0.0731338
0.0731379
0.073142
0.073146
0.0731501
0.0731541
0.0731581
0.073162
0.0731659
0.0731699
0.0731737
0.0731776
0.0731814
0.0731852
0.073189
0.0731928
0.0731966
0.0732003
0.073204
0.0732077
0.0732113
0.073215
0.0732186
0.0732222
0.0732258
0.0732294
0.073233
0.0732365
0.07324
0.0732435
0.073247
0.0732505
0.0732539
0.0732574
0.0732608
0.0732642
0.0732676
0.073271
0.0732743
0.0732777
0.073281
0.0732843
0.0732876
0.0732909
0.0732942
0.0732975
0.0733007
0.0733039
0.0733072
0.0733104
0.0733136
0.0733168
0.0733199
0.0733231
0.0733263
0.0733294
0.0733325
0.0733356
0.0733387
0.0733418
0.0733449
0.073348
0.073351
0.0733541
0.0733571
0.0733601
0.0733632
0.0733662
0.0733691
0.0733721
0.0733751
0.0733781
0.073381
0.0733839
0.0733868
0.0733898
0.0733927
0.0733955
0.0733984
0.0734013
0.0734041
0.073407
0.0734098
0.0734126
0.0734154
0.0734182
0.073421
0.0734238
0.0734265
0.0734292
0.073432
0.0734347
0.0734374
0.0734401
0.0734428
0.0734454
0.0734481
0.0734507
0.0734533
0.0734559
0.0734585
0.0734611
0.0734637
0.0734662
0.0734687
0.0734712
0.0734737
0.0734762
0.0734787
0.0734812
0.0734836
0.073486
0.0734884
0.0734908
0.0734932
0.0734955
0.0734978
0.0735002
0.0735025
0.0735047
0.073507
0.0735092
0.0735115
0.0735137
0.0735159
0.073518
0.0735202
0.0735223
0.0735244
0.0735265
0.0735286
0.0735306
0.0735326
0.0735346
0.0735366
0.0735386
0.0735405
0.0735424
0.0735443
0.0735462
0.073548
0.0735499
0.0735517
0.0735534
0.0735552
0.0735569
0.0735586
0.0735603
0.073562
0.0735636
0.0735652
0.0735668
0.0735683
0.0735698
0.0735713
0.0735728
0.0735742
0.0735756
0.073577
0.0735784
0.0735797
0.073581
0.0735823
0.0735835
0.0735847
0.0735859
0.073587
0.0735882
0.0735892
0.0735903
0.0735913
0.0735923
0.0735933
0.0735942
0.0735951
0.0735959
0.0735968
0.0735976
0.0735983
0.0735991
0.0735998
0.0736005
0.0736011
0.0736017
0.0736023
0.0736028
0.0736033
0.0736038
0.0736043
0.0736047
0.0736051
0.0736055
0.0736058
0.0736062
0.0736065
0.0736067
0.073607
0.0736072
0.0736074
0.0736076
0.0736077
0.0736079
0.073608
0.0736081
0.0736082
0.0736083
0.0736084
0.0736085
0.0736085
0.0736086
0.0736086
0.0736087
0.0736087
0.0736088
0.0736088
0.0736089
0.0736089
0.073609
0.0736091
0.0736092
0.0736093
0.0736094
0.0736095
0.0736097
0.0736099
0.0736101
0.0736103
0.0736105
0.0736108
0.0736111
0.0736115
0.0736118
0.0736122
0.0736127
0.0736131
0.0736136
0.0736142
0.0736148
0.0736154
0.073616
0.0736167
0.0736175
0.0736184
0.0736196
0.0736217
0.0736262
0.0736347
0.0613427
0.0615007
0.0616908
0.0619183
0.0621878
0.0625019
0.0628597
0.0632567
0.063686
0.0641389
0.0646062
0.0650789
0.0655487
0.0660086
0.0664532
0.0668783
0.0672812
0.0676603
0.068015
0.0683452
0.0686517
0.0689353
0.0691973
0.069439
0.0696619
0.0698673
0.0700566
0.0702313
0.0703924
0.0705412
0.0706788
0.0708061
0.070924
0.0710334
0.0711351
0.0712296
0.0713177
0.0713998
0.0714765
0.0715483
0.0716155
0.0716786
0.0717378
0.0717935
0.071846
0.0718955
0.0719422
0.0719864
0.0720282
0.0720678
0.0721054
0.0721411
0.0721751
0.0722075
0.0722383
0.0722678
0.0722959
0.0723228
0.0723485
0.0723732
0.0723968
0.0724195
0.0724413
0.0724623
0.0724825
0.0725019
0.0725207
0.0725388
0.0725562
0.0725731
0.0725894
0.0726052
0.0726205
0.0726354
0.0726497
0.0726637
0.0726772
0.0726904
0.0727032
0.0727157
0.0727278
0.0727396
0.0727511
0.0727623
0.0727732
0.0727839
0.0727943
0.0728045
0.0728144
0.0728242
0.0728337
0.072843
0.0728521
0.072861
0.0728698
0.0728784
0.0728868
0.072895
0.0729031
0.072911
0.0729188
0.0729265
0.072934
0.0729414
0.0729487
0.0729558
0.0729629
0.0729698
0.0729766
0.0729833
0.0729899
0.0729964
0.0730029
0.0730092
0.0730154
0.0730216
0.0730276
0.0730336
0.0730395
0.0730453
0.073051
0.0730567
0.0730623
0.0730678
0.0730733
0.0730787
0.073084
0.0730893
0.0730945
0.0730997
0.0731047
0.0731098
0.0731148
0.0731197
0.0731246
0.0731294
0.0731341
0.0731389
0.0731435
0.0731482