/*--------------------------------*- C++ -*----------------------------------*\
| =========                 |                                                 |
| \\      /  F ield         | OpenFOAM: The Open Source CFD Toolbox           |
|  \\    /   O peration     | Version:  2506                                  |
|   \\  /    A nd           | Website:  www.openfoam.com                      |
|    \\/     M anipulation  |                                                 |
\*---------------------------------------------------------------------------*/
FoamFile
{
    version     2.0;
    format      ascii;
    arch        "LSB;label=32;scalar=64";
    class       volScalarField;
    location    "600";
    object      p;
}
// * * * * * * * * * * * * * * * * * * * * * * * * * * * * * * * * * * * * * //

dimensions      [0 2 -2 0 0 0 0];

internalField   nonuniform List<scalar> 
131949
(
-32.7321
-25.1237
-21.4452
-20.0749
-18.8471
-17.7018
-16.7928
-16.0439
-15.3851
-14.7979
-14.2722
-13.7963
-13.3611
-12.9602
-12.5888
-12.2429
-11.9192
-11.615
-11.3283
-11.0571
-10.7998
-10.5552
-10.322
-10.0993
-9.88615
-9.68182
-9.48561
-9.29693
-9.11523
-8.94004
-8.77091
-8.60746
-8.44934
-8.29621
-8.1478
-8.00382
-7.86404
-7.72823
-7.59618
-7.46771
-7.34263
-7.22078
-7.102
-6.98617
-6.87314
-6.7628
-6.65502
-6.54971
-6.44675
-6.34606
-6.24755
-6.15113
-6.05673
-5.96427
-5.87368
-5.7849
-5.69786
-5.6125
-5.52877
-5.44661
-5.36598
-5.28682
-5.20909
-5.13275
-5.05775
-4.98405
-4.91162
-4.84043
-4.77043
-4.70159
-4.63388
-4.56728
-4.50174
-4.43726
-4.37379
-4.31131
-4.2498
-4.18924
-4.12959
-4.07085
-4.01299
-3.95598
-3.89982
-3.84448
-3.78994
-3.73618
-3.68319
-3.63096
-3.57946
-3.52869
-3.47862
-3.42924
-3.38054
-3.33251
-3.28514
-3.2384
-3.1923
-3.14681
-3.10192
-3.05764
-3.01393
-2.97081
-2.92824
-2.88624
-2.84478
-2.80385
-2.76345
-2.72358
-2.68421
-2.64535
-2.60698
-2.5691
-2.5317
-2.49477
-2.45831
-2.42231
-2.38676
-2.35166
-2.317
-2.28277
-2.24897
-2.21559
-2.18262
-2.15007
-2.11792
-2.08617
-2.05482
-2.02385
-1.99327
-1.96307
-1.93325
-1.90379
-1.8747
-1.84598
-1.81761
-1.78959
-1.76193
-1.7346
-1.70762
-1.68098
-1.65467
-1.62869
-1.60303
-1.5777
-1.55269
-1.52799
-1.5036
-1.47953
-1.45576
-1.43229
-1.40912
-1.38624
-1.36366
-1.34137
-1.31937
-1.29764
-1.27621
-1.25504
-1.23416
-1.21354
-1.1932
-1.17312
-1.15331
-1.13376
-1.11447
-1.09544
-1.07666
-1.05813
-1.03985
-1.02181
-1.00403
-0.986478
-0.969169
-0.952098
-0.935261
-0.918656
-0.90228
-0.886133
-0.87021
-0.85451
-0.83903
-0.823769
-0.808724
-0.793893
-0.779273
-0.764863
-0.75066
-0.736662
-0.722867
-0.709272
-0.695877
-0.682677
-0.669673
-0.65686
-0.644238
-0.631804
-0.619555
-0.607491
-0.595609
-0.583907
-0.572383
-0.561034
-0.54986
-0.538858
-0.528025
-0.517361
-0.506863
-0.496528
-0.486357
-0.476345
-0.466492
-0.456796
-0.447254
-0.437865
-0.428627
-0.419539
-0.410598
-0.401802
-0.39315
-0.38464
-0.376271
-0.36804
-0.359945
-0.351986
-0.34416
-0.336466
-0.328902
-0.321467
-0.314158
-0.306974
-0.299914
-0.292975
-0.286157
-0.279458
-0.272876
-0.266409
-0.260057
-0.253817
-0.247688
-0.241669
-0.235759
-0.229955
-0.224256
-0.218662
-0.21317
-0.207779
-0.202487
-0.197294
-0.192199
-0.187199
-0.182293
-0.177481
-0.17276
-0.16813
-0.163589
-0.159137
-0.154771
-0.150491
-0.146295
-0.142182
-0.138152
-0.134202
-0.130332
-0.126541
-0.122827
-0.11919
-0.115628
-0.112139
-0.108725
-0.105382
-0.10211
-0.0989074
-0.0957742
-0.0927089
-0.0897104
-0.0867777
-0.0839099
-0.0811059
-0.0783649
-0.0756858
-0.0730677
-0.0705097
-0.0680109
-0.0655702
-0.0631869
-0.06086
-0.0585886
-0.0563719
-0.0542089
-0.0520989
-0.050041
-0.0480343
-0.046078
-0.0441712
-0.0423133
-0.0405033
-0.0387405
-0.037024
-0.0353532
-0.0337272
-0.0321453
-0.0306067
-0.0291107
-0.0276565
-0.0262435
-0.0248709
-0.023538
-0.0222441
-0.0209884
-0.0197705
-0.0185894
-0.0174447
-0.0163355
-0.0152614
-0.0142215
-0.0132154
-0.0122423
-0.0113017
-0.0103929
-0.00951528
-0.00866834
-0.00785145
-0.00706403
-0.00630549
-0.00557528
-0.00487284
-0.00419761
-0.00354905
-0.00292663
-0.00232981
-0.00175807
-0.00121091
-0.000687796
-0.000188243
0.000288249
0.000742168
0.001174
0.00158421
0.00197327
0.00234165
0.00268981
0.00301818
0.00332723
0.00361738
0.00388906
0.00414271
0.00437875
0.0045976
0.00479966
0.00498533
0.00515503
0.00530915
0.00544808
0.0055722
0.00568191
0.00577757
0.00585957
0.00592827
0.00598405
0.00602726
0.00605827
0.00607745
0.00608514
0.0060817
0.00606748
0.00604284
0.00600813
0.00596369
0.00590987
0.00584704
0.00577553
0.0056957
0.0056079
0.0055125
0.00540984
0.00530031
0.00518425
0.00506206
0.00493411
0.0048008
0.00466252
0.00451969
0.00437273
0.00422208
0.00406819
0.00391153
0.0037526
0.00359192
0.00343003
0.00326752
0.00310499
0.00294311
0.00278254
0.00262422
0.0024681
0.00231937
0.00215793
0.00208344
0.00162725
0.00346338
-25.1835
-22.6186
-20.6532
-19.4993
-18.4603
-17.4764
-16.6407
-15.9288
-15.2974
-14.7296
-14.2171
-13.7508
-13.323
-12.9278
-12.5609
-12.2186
-11.8978
-11.5962
-11.3115
-11.042
-10.7862
-10.5428
-10.3107
-10.089
-9.87667
-9.67307
-9.47752
-9.28942
-9.10825
-8.93352
-8.76482
-8.60176
-8.44398
-8.29117
-8.14304
-7.99933
-7.8598
-7.72421
-7.59237
-7.46408
-7.33918
-7.21749
-7.09887
-6.98318
-6.87028
-6.76006
-6.6524
-6.54719
-6.44434
-6.34374
-6.24532
-6.14899
-6.05467
-5.96228
-5.87176
-5.78305
-5.69607
-5.61077
-5.5271
-5.44499
-5.36441
-5.2853
-5.20762
-5.13132
-5.05636
-4.98271
-4.91032
-4.83916
-4.76919
-4.70039
-4.63271
-4.56614
-4.50063
-4.43617
-4.37273
-4.31028
-4.2488
-4.18826
-4.12864
-4.06992
-4.01208
-3.95509
-3.89895
-3.84362
-3.7891
-3.73536
-3.68239
-3.63018
-3.5787
-3.52794
-3.47788
-3.42852
-3.37984
-3.33182
-3.28446
-3.23773
-3.19164
-3.14616
-3.10129
-3.05702
-3.01332
-2.97021
-2.92766
-2.88566
-2.84421
-2.80329
-2.7629
-2.72303
-2.68368
-2.64482
-2.60646
-2.56859
-2.5312
-2.49428
-2.45783
-2.42183
-2.38629
-2.35119
-2.31654
-2.28231
-2.24852
-2.21514
-2.18219
-2.14964
-2.1175
-2.08575
-2.0544
-2.02344
-1.99287
-1.96267
-1.93285
-1.9034
-1.87432
-1.8456
-1.81723
-1.78922
-1.76156
-1.73424
-1.70727
-1.68063
-1.65432
-1.62834
-1.60269
-1.57736
-1.55235
-1.52766
-1.50328
-1.4792
-1.45544
-1.43197
-1.4088
-1.38593
-1.36335
-1.34107
-1.31907
-1.29735
-1.27591
-1.25475
-1.23387
-1.21326
-1.19292
-1.17284
-1.15304
-1.13349
-1.1142
-1.09517
-1.07639
-1.05786
-1.03959
-1.02156
-1.00377
-0.986226
-0.96892
-0.951851
-0.935016
-0.918414
-0.902041
-0.885895
-0.869975
-0.854277
-0.8388
-0.823542
-0.808499
-0.79367
-0.779053
-0.764645
-0.750444
-0.736448
-0.722656
-0.709064
-0.69567
-0.682473
-0.669471
-0.65666
-0.64404
-0.631608
-0.619362
-0.6073
-0.59542
-0.58372
-0.572198
-0.560852
-0.54968
-0.538679
-0.527849
-0.517187
-0.506691
-0.496359
-0.486189
-0.476179
-0.466328
-0.456634
-0.447094
-0.437707
-0.428471
-0.419385
-0.410445
-0.401652
-0.393002
-0.384494
-0.376126
-0.367897
-0.359805
-0.351847
-0.344023
-0.336331
-0.328769
-0.321335
-0.314028
-0.306845
-0.299787
-0.29285
-0.286034
-0.279336
-0.272755
-0.26629
-0.25994
-0.253702
-0.247575
-0.241557
-0.235648
-0.229846
-0.224149
-0.218555
-0.213065
-0.207675
-0.202386
-0.197194
-0.1921
-0.187101
-0.182197
-0.177386
-0.172667
-0.168038
-0.163499
-0.159047
-0.154683
-0.150404
-0.146209
-0.142098
-0.138069
-0.13412
-0.130252
-0.126462
-0.122749
-0.119113
-0.115552
-0.112065
-0.108651
-0.105309
-0.102038
-0.0988371
-0.095705
-0.0926407
-0.0896432
-0.0867116
-0.0838448
-0.0810419
-0.0783019
-0.0756238
-0.0730067
-0.0704497
-0.0679518
-0.0655121
-0.0631298
-0.0608038
-0.0585333
-0.0563175
-0.0541555
-0.0520464
-0.0499893
-0.0479835
-0.0460281
-0.0441222
-0.0422651
-0.0404559
-0.038694
-0.0369783
-0.0353083
-0.0336831
-0.032102
-0.0305642
-0.029069
-0.0276156
-0.0262033
-0.0248315
-0.0234993
-0.0222061
-0.0209512
-0.0197339
-0.0185536
-0.0174095
-0.0163011
-0.0152276
-0.0141884
-0.0131829
-0.0122105
-0.0112705
-0.0103624
-0.00948543
-0.00863912
-0.00782284
-0.00703603
-0.00627809
-0.00554847
-0.00484661
-0.00417196
-0.00352397
-0.00290211
-0.00230585
-0.00173467
-0.00118804
-0.000665464
-0.000166438
0.000309532
0.000762937
0.00119426
0.00160397
0.00199254
0.00236043
0.0027081
0.003036
0.00334457
0.00363425
0.00390547
0.00415867
0.00439426
0.00461265
0.00481427
0.00499951
0.00516878
0.00532247
0.00546097
0.00558467
0.00569395
0.0057892
0.00587078
0.00593907
0.00599444
0.00603725
0.00606786
0.00608662
0.00609391
0.00609006
0.00607544
0.0060504
0.00601528
0.00597043
0.00591621
0.00585296
0.00578103
0.00570078
0.00561256
0.00551673
0.00541363
0.00530365
0.00518714
0.00506449
0.00493607
0.00480226
0.00466349
0.00452014
0.00437264
0.00422143
0.00406696
0.0039097
0.00375014
0.0035888
0.00342621
0.00326296
0.00309965
0.00293693
0.00277547
0.00261614
0.00245919
0.00230834
0.00215
0.00205421
0.00170872
0.00315964
-21.9733
-21.1726
-19.9341
-18.8857
-17.9897
-17.1562
-16.4072
-15.746
-15.1525
-14.6133
-14.1216
-13.671
-13.2553
-12.8698
-12.5106
-12.1745
-11.859
-11.5616
-11.2806
-11.0142
-10.7611
-10.52
-10.2899
-10.0699
-9.85908
-9.65684
-9.4625
-9.27547
-9.09526
-8.9214
-8.75348
-8.59112
-8.43398
-8.28176
-8.13417
-7.99095
-7.85186
-7.71669
-7.58523
-7.4573
-7.33272
-7.21134
-7.093
-6.97757
-6.86492
-6.75493
-6.64748
-6.54247
-6.43981
-6.33939
-6.24114
-6.14496
-6.05079
-5.95854
-5.86815
-5.77956
-5.6927
-5.60752
-5.52395
-5.44195
-5.36146
-5.28244
-5.20485
-5.12863
-5.05375
-4.98017
-4.90786
-4.83676
-4.76686
-4.69812
-4.63051
-4.56399
-4.49855
-4.43414
-4.37075
-4.30835
-4.24691
-4.18641
-4.12684
-4.06816
-4.01036
-3.95341
-3.89731
-3.84202
-3.78753
-3.73383
-3.68089
-3.6287
-3.57725
-3.52652
-3.47649
-3.42716
-3.3785
-3.33051
-3.28317
-3.23647
-3.1904
-3.14495
-3.1001
-3.05584
-3.01217
-2.96908
-2.92654
-2.88456
-2.84313
-2.80223
-2.76186
-2.72201
-2.68267
-2.64383
-2.60549
-2.56763
-2.53025
-2.49335
-2.45691
-2.42092
-2.3854
-2.35031
-2.31567
-2.28146
-2.24767
-2.21431
-2.18136
-2.14882
-2.11669
-2.08496
-2.05362
-2.02267
-1.99211
-1.96192
-1.93211
-1.90267
-1.87359
-1.84488
-1.81653
-1.78852
-1.76087
-1.73356
-1.70659
-1.67996
-1.65366
-1.62769
-1.60204
-1.57672
-1.55172
-1.52703
-1.50266
-1.47859
-1.45483
-1.43137
-1.40821
-1.38534
-1.36277
-1.34049
-1.31849
-1.29678
-1.27535
-1.2542
-1.23332
-1.21272
-1.19238
-1.17231
-1.15251
-1.13297
-1.11368
-1.09466
-1.07589
-1.05737
-1.03909
-1.02107
-1.00329
-0.985746
-0.968445
-0.95138
-0.934551
-0.917953
-0.901585
-0.885444
-0.869528
-0.853835
-0.838363
-0.823109
-0.80807
-0.793246
-0.778633
-0.76423
-0.750033
-0.736042
-0.722254
-0.708666
-0.695277
-0.682084
-0.669086
-0.65628
-0.643664
-0.631236
-0.618994
-0.606937
-0.595061
-0.583365
-0.571847
-0.560505
-0.549336
-0.53834
-0.527514
-0.516855
-0.506363
-0.496035
-0.485869
-0.475864
-0.466016
-0.456326
-0.44679
-0.437407
-0.428175
-0.419092
-0.410156
-0.401366
-0.392719
-0.384215
-0.375851
-0.367625
-0.359536
-0.351583
-0.343762
-0.336073
-0.328514
-0.321084
-0.31378
-0.306601
-0.299546
-0.292612
-0.285799
-0.279104
-0.272527
-0.266065
-0.259717
-0.253482
-0.247358
-0.241344
-0.235438
-0.229638
-0.223944
-0.218354
-0.212866
-0.207479
-0.202192
-0.197004
-0.191912
-0.186916
-0.182014
-0.177206
-0.172489
-0.167863
-0.163326
-0.158877
-0.154515
-0.150239
-0.146047
-0.141938
-0.137911
-0.133965
-0.130099
-0.126311
-0.122601
-0.118966
-0.115408
-0.111923
-0.108511
-0.105172
-0.101903
-0.0987039
-0.0955738
-0.0925116
-0.0895162
-0.0865866
-0.0837218
-0.0809208
-0.0781828
-0.0755066
-0.0728915
-0.0703363
-0.0678403
-0.0654024
-0.0630219
-0.0606977
-0.0584291
-0.056215
-0.0540547
-0.0519473
-0.049892
-0.0478878
-0.0459341
-0.0440298
-0.0421744
-0.0403668
-0.0386064
-0.0368924
-0.0352239
-0.0336003
-0.0320207
-0.0304844
-0.0289906
-0.0275387
-0.0261279
-0.0247575
-0.0234267
-0.0221349
-0.0208814
-0.0196655
-0.0184865
-0.0173438
-0.0162367
-0.0151645
-0.0141266
-0.0131224
-0.0121512
-0.0112125
-0.0103055
-0.0094298
-0.00858468
-0.00776958
-0.00698392
-0.00622713
-0.00549864
-0.0047979
-0.00412435
-0.00347744
-0.00285666
-0.00226145
-0.00169131
-0.00114571
-0.000624149
-0.000126124
0.000348859
0.000801288
0.00123165
0.00164041
0.00202804
0.00239501
0.00274177
0.00306876
0.00337645
0.00366525
0.00393561
0.00418795
0.00442269
0.00464025
0.00484104
0.00502547
0.00519393
0.00534682
0.00548453
0.00560745
0.00571596
0.00581045
0.00589127
0.00595881
0.00601342
0.00605549
0.00608536
0.00610339
0.00610994
0.00610537
0.00609002
0.00606425
0.0060284
0.00598283
0.00592788
0.0058639
0.00579123
0.00571024
0.00562127
0.00552468
0.00542082
0.00531005
0.00519275
0.00506929
0.00494003
0.00480538
0.00466573
0.00452148
0.00437305
0.00422088
0.0040654
0.00390709
0.00374642
0.00358392
0.00342011
0.00325556
0.00309086
0.00292667
0.00276363
0.00260257
0.0024438
0.0022906
0.00213098
0.00202753
0.00169439
0.00307718
-20.0971
-19.7336
-18.9468
-18.1419
-17.4205
-16.7338
-16.0863
-15.4928
-14.9492
-14.448
-13.9848
-13.556
-13.1574
-12.7854
-12.4372
-12.1102
-11.802
-11.5109
-11.2351
-10.9732
-10.7239
-10.4862
-10.259
-10.0415
-9.83296
-9.6327
-9.44012
-9.25468
-9.07588
-8.9033
-8.73653
-8.57522
-8.41903
-8.26768
-8.12088
-7.97839
-7.83997
-7.70541
-7.57452
-7.44712
-7.32303
-7.20209
-7.08418
-6.96914
-6.85686
-6.74721
-6.64008
-6.53538
-6.43299
-6.33284
-6.23484
-6.1389
-6.04494
-5.95291
-5.86272
-5.77431
-5.68763
-5.60262
-5.51921
-5.43736
-5.35702
-5.27813
-5.20067
-5.12458
-5.04982
-4.97635
-4.90414
-4.83315
-4.76335
-4.69471
-4.62718
-4.56075
-4.49539
-4.43106
-4.36775
-4.30542
-4.24406
-4.18363
-4.12412
-4.0655
-4.00776
-3.95088
-3.89482
-3.83959
-3.78516
-3.7315
-3.67861
-3.62647
-3.57507
-3.52438
-3.4744
-3.4251
-3.37649
-3.32853
-3.28123
-3.23457
-3.18853
-3.14311
-3.09829
-3.05407
-3.01043
-2.96736
-2.92486
-2.88291
-2.8415
-2.80063
-2.76029
-2.72046
-2.68114
-2.64233
-2.60401
-2.56617
-2.52881
-2.49193
-2.45551
-2.41955
-2.38404
-2.34898
-2.31435
-2.28016
-2.24639
-2.21305
-2.18011
-2.14759
-2.11548
-2.08376
-2.05244
-2.0215
-1.99095
-1.96078
-1.93098
-1.90156
-1.87249
-1.84379
-1.81545
-1.78746
-1.75982
-1.73252
-1.70556
-1.67894
-1.65265
-1.6267
-1.60106
-1.57575
-1.55076
-1.52608
-1.50172
-1.47766
-1.45391
-1.43046
-1.40731
-1.38445
-1.36189
-1.33962
-1.31763
-1.29593
-1.27451
-1.25336
-1.23249
-1.2119
-1.19157
-1.17151
-1.15171
-1.13218
-1.1129
-1.09389
-1.07512
-1.05661
-1.03834
-1.02033
-1.00255
-0.985018
-0.967725
-0.950668
-0.933845
-0.917255
-0.900894
-0.88476
-0.868851
-0.853165
-0.8377
-0.822453
-0.807421
-0.792604
-0.777997
-0.763601
-0.749411
-0.735426
-0.721645
-0.708063
-0.694681
-0.681495
-0.668503
-0.655703
-0.643094
-0.630672
-0.618437
-0.606385
-0.594516
-0.582826
-0.571314
-0.559978
-0.548816
-0.537826
-0.527005
-0.516353
-0.505867
-0.495545
-0.485385
-0.475385
-0.465543
-0.455859
-0.446328
-0.436951
-0.427724
-0.418647
-0.409717
-0.400932
-0.392291
-0.383792
-0.375434
-0.367213
-0.35913
-0.351181
-0.343366
-0.335682
-0.328128
-0.320703
-0.313404
-0.30623
-0.29918
-0.292251
-0.285443
-0.278753
-0.27218
-0.265723
-0.25938
-0.253149
-0.24703
-0.24102
-0.235118
-0.229323
-0.223634
-0.218048
-0.212564
-0.207182
-0.201899
-0.196714
-0.191627
-0.186635
-0.181737
-0.176933
-0.17222
-0.167598
-0.163065
-0.15862
-0.154261
-0.149989
-0.1458
-0.141695
-0.137672
-0.133729
-0.129866
-0.126082
-0.122375
-0.118744
-0.115189
-0.111708
-0.108299
-0.104963
-0.101697
-0.0985014
-0.0953745
-0.0923154
-0.089323
-0.0863965
-0.0835347
-0.0807367
-0.0780016
-0.0753284
-0.0727161
-0.0701638
-0.0676706
-0.0652355
-0.0628577
-0.0605363
-0.0582703
-0.0560589
-0.0539013
-0.0517965
-0.0497437
-0.0477421
-0.0457909
-0.0438892
-0.0420362
-0.0402311
-0.0384731
-0.0367614
-0.0350953
-0.033474
-0.0318967
-0.0303627
-0.0288712
-0.0274215
-0.0260129
-0.0246446
-0.023316
-0.0220263
-0.0207749
-0.0195611
-0.0183841
-0.0172434
-0.0161383
-0.0150681
-0.0140321
-0.0130298
-0.0120605
-0.0111237
-0.0102186
-0.00934466
-0.00850133
-0.00768801
-0.0069041
-0.00614904
-0.00542226
-0.0047232
-0.00405131
-0.00340605
-0.00278687
-0.00219326
-0.00162469
-0.00108065
-0.000560619
-6.41058e-05
0.000409387
0.000860347
0.00128925
0.00169659
0.00208281
0.00244838
0.00279377
0.00311941
0.00342576
0.00371324
0.0039823
0.00423335
0.00446683
0.00468314
0.00488269
0.00506589
0.00523315
0.00538484
0.00552138
0.00564313
0.00575049
0.00584382
0.00592351
0.00598993
0.00604343
0.00608439
0.00611317
0.00613011
0.00613558
0.00612993
0.00611351
0.00608666
0.00604974
0.0060031
0.00594707
0.00588202
0.00580827
0.00572619
0.00563613
0.00553842
0.00543344
0.00532154
0.00520308
0.00507844
0.00494798
0.0048121
0.00467117
0.00452562
0.00437583
0.00422225
0.00406531
0.00390548
0.00374321
0.00357902
0.00341343
0.003247
0.0030803
0.00291396
0.00274861
0.00258506
0.00242361
0.00226732
0.00210491
0.00199564
0.00166503
0.00300812
-18.6978
-18.5014
-18.0117
-17.424
-16.8465
-16.2776
-15.7233
-15.1987
-14.7073
-14.2471
-13.8161
-13.4126
-13.0342
-12.6787
-12.3439
-12.0279
-11.729
-11.4457
-11.1765
-10.9202
-10.6758
-10.4423
-10.2189
-10.0046
-9.79897
-9.60126
-9.41095
-9.22754
-9.05057
-8.87963
-8.71435
-8.55439
-8.39944
-8.24921
-8.10344
-7.9619
-7.82435
-7.69059
-7.56044
-7.43372
-7.31027
-7.18993
-7.07256
-6.95804
-6.84623
-6.73703
-6.63032
-6.52601
-6.424
-6.32419
-6.22652
-6.13088
-6.03722
-5.94546
-5.85553
-5.76737
-5.68093
-5.59613
-5.51293
-5.43128
-5.35113
-5.27243
-5.19514
-5.11921
-5.04461
-4.97129
-4.89922
-4.82837
-4.7587
-4.69018
-4.62277
-4.55646
-4.49121
-4.42699
-4.36377
-4.30154
-4.24027
-4.17993
-4.12051
-4.06198
-4.00432
-3.94751
-3.89153
-3.83637
-3.782
-3.72841
-3.67559
-3.62351
-3.57217
-3.52154
-3.47161
-3.42237
-3.37381
-3.3259
-3.27865
-3.23204
-3.18605
-3.14067
-3.0959
-3.05171
-3.00811
-2.96509
-2.92262
-2.88071
-2.83934
-2.7985
-2.75819
-2.7184
-2.67911
-2.64033
-2.60204
-2.56423
-2.5269
-2.49005
-2.45366
-2.41772
-2.38224
-2.3472
-2.3126
-2.27843
-2.24468
-2.21136
-2.17845
-2.14595
-2.11386
-2.08216
-2.05086
-2.01994
-1.98941
-1.95926
-1.92948
-1.90007
-1.87103
-1.84235
-1.81402
-1.78605
-1.75842
-1.73114
-1.7042
-1.67759
-1.65132
-1.62537
-1.59976
-1.57446
-1.54948
-1.52482
-1.50047
-1.47642
-1.45268
-1.42925
-1.40611
-1.38327
-1.36071
-1.33845
-1.31648
-1.29479
-1.27338
-1.25224
-1.23139
-1.2108
-1.19049
-1.17044
-1.15065
-1.13113
-1.11186
-1.09286
-1.0741
-1.0556
-1.03734
-1.01934
-1.00157
-0.984048
-0.966765
-0.949717
-0.932904
-0.916323
-0.899972
-0.883847
-0.867948
-0.852271
-0.836815
-0.821577
-0.806555
-0.791746
-0.777149
-0.762761
-0.748581
-0.734605
-0.720832
-0.707259
-0.693886
-0.680708
-0.667725
-0.654934
-0.642333
-0.62992
-0.617693
-0.605649
-0.593788
-0.582107
-0.570603
-0.559275
-0.548121
-0.537139
-0.526327
-0.515682
-0.505204
-0.49489
-0.484738
-0.474746
-0.464912
-0.455235
-0.445712
-0.436342
-0.427123
-0.418053
-0.409131
-0.400354
-0.39172
-0.383228
-0.374877
-0.366663
-0.358587
-0.350645
-0.342837
-0.33516
-0.327613
-0.320194
-0.312902
-0.305735
-0.298691
-0.291769
-0.284967
-0.278284
-0.271717
-0.265266
-0.25893
-0.252705
-0.246592
-0.240588
-0.234692
-0.228903
-0.223219
-0.217639
-0.212161
-0.206784
-0.201507
-0.196328
-0.191246
-0.186259
-0.181367
-0.176568
-0.17186
-0.167243
-0.162715
-0.158275
-0.153922
-0.149654
-0.145471
-0.14137
-0.137352
-0.133414
-0.129556
-0.125776
-0.122074
-0.118448
-0.114897
-0.11142
-0.108016
-0.104684
-0.101422
-0.0982309
-0.0951082
-0.0920533
-0.089065
-0.0861425
-0.0832847
-0.0804908
-0.0777596
-0.0750902
-0.0724818
-0.0699333
-0.0674438
-0.0650125
-0.0626384
-0.0603206
-0.0580582
-0.0558504
-0.0536962
-0.0515949
-0.0495456
-0.0475474
-0.0455995
-0.0437011
-0.0418514
-0.0400496
-0.0382948
-0.0365863
-0.0349234
-0.0333051
-0.0317309
-0.0301999
-0.0287114
-0.0272647
-0.025859
-0.0244936
-0.0231679
-0.021881
-0.0206324
-0.0194213
-0.0182471
-0.0171091
-0.0160066
-0.014939
-0.0139057
-0.012906
-0.0119392
-0.0110048
-0.0101022
-0.00923071
-0.00838978
-0.00757882
-0.00679725
-0.0060445
-0.00531999
-0.00462318
-0.0039535
-0.00331042
-0.00269341
-0.00210193
-0.00153545
-0.000993478
-0.00047549
1.90103e-05
0.000490517
0.000939518
0.00136649
0.00177192
0.00215626
0.00251998
0.00286354
0.00318738
0.00349195
0.00377767
0.004045
0.00429435
0.00452613
0.00474078
0.00493868
0.00512026
0.00528591
0.00543602
0.00557099
0.00569119
0.00579701
0.00588883
0.00596702
0.00603195
0.00608398
0.00612348
0.0061508
0.0061663
0.00617034
0.00616326
0.00614542
0.00611716
0.00607883
0.00603077
0.00597333
0.00590686
0.00583169
0.00574818
0.00565667
0.00555752
0.00545107
0.00533767
0.0052177
0.00509151
0.00495947
0.00482197
0.00467939
0.00453212
0.00438057
0.00422515
0.0040663
0.00390447
0.00374012
0.00357373
0.00340583
0.00323693
0.00306762
0.00289849
0.00273016
0.00256338
0.00239847
0.00223833
0.00207216
0.00195698
0.00162757
0.00292454
-17.6085
-17.4925
-17.1709
-16.7366
-16.2754
-15.8056
-15.335
-14.8765
-14.4373
-14.0189
-13.6217
-13.2455
-12.8894
-12.5523
-12.2327
-11.9295
-11.6413
-11.3671
-11.1057
-10.8561
-10.6175
-10.3891
-10.17
-9.95968
-9.75747
-9.56284
-9.37527
-9.19431
-9.01955
-8.85061
-8.68714
-8.52883
-8.37537
-8.22651
-8.082
-7.9416
-7.80511
-7.67233
-7.54309
-7.4172
-7.29453
-7.17491
-7.05822
-6.94432
-6.8331
-6.72445
-6.61826
-6.51443
-6.41287
-6.31349
-6.21622
-6.12096
-6.02766
-5.93624
-5.84663
-5.75877
-5.67261
-5.58809
-5.50515
-5.42375
-5.34383
-5.26535
-5.18827
-5.11254
-5.03813
-4.965
-4.89311
-4.82243
-4.75292
-4.68455
-4.6173
-4.55112
-4.486
-4.42191
-4.35883
-4.29671
-4.23556
-4.17533
-4.11602
-4.05759
-4.00002
-3.94331
-3.88743
-3.83235
-3.77807
-3.72457
-3.67182
-3.61982
-3.56855
-3.51799
-3.46814
-3.41896
-3.37046
-3.32263
-3.27543
-3.22888
-3.18294
-3.13762
-3.0929
-3.04877
-3.00523
-2.96225
-2.91983
-2.87796
-2.83664
-2.79584
-2.75557
-2.71582
-2.67658
-2.63783
-2.59958
-2.56181
-2.52452
-2.4877
-2.45134
-2.41544
-2.37999
-2.34498
-2.31041
-2.27627
-2.24255
-2.20926
-2.17638
-2.14391
-2.11184
-2.08017
-2.04889
-2.018
-1.98749
-1.95736
-1.92761
-1.89822
-1.8692
-1.84054
-1.81223
-1.78428
-1.75667
-1.72941
-1.70249
-1.6759
-1.64965
-1.62372
-1.59812
-1.57284
-1.54788
-1.52324
-1.4989
-1.47487
-1.45115
-1.42773
-1.40461
-1.38178
-1.35924
-1.337
-1.31504
-1.29336
-1.27197
-1.25085
-1.23
-1.20943
-1.18913
-1.16909
-1.14932
-1.12981
-1.11056
-1.09157
-1.07282
-1.05433
-1.03609
-1.0181
-1.00034
-0.982834
-0.965562
-0.948527
-0.931726
-0.915157
-0.898818
-0.882705
-0.866817
-0.851152
-0.835708
-0.820481
-0.80547
-0.790673
-0.776087
-0.76171
-0.747541
-0.733576
-0.719814
-0.706253
-0.69289
-0.679723
-0.66675
-0.65397
-0.64138
-0.628977
-0.616761
-0.604728
-0.592877
-0.581206
-0.569713
-0.558395
-0.547251
-0.536279
-0.525477
-0.514843
-0.504374
-0.49407
-0.483927
-0.473945
-0.464121
-0.454454
-0.444941
-0.43558
-0.426371
-0.41731
-0.408397
-0.399629
-0.391004
-0.382521
-0.374179
-0.365975
-0.357907
-0.349974
-0.342174
-0.334506
-0.326968
-0.319557
-0.312273
-0.305115
-0.298079
-0.291165
-0.284371
-0.277696
-0.271137
-0.264694
-0.258365
-0.252148
-0.246043
-0.240046
-0.234158
-0.228376
-0.222699
-0.217126
-0.211656
-0.206286
-0.201016
-0.195844
-0.190768
-0.185789
-0.180903
-0.176111
-0.17141
-0.166799
-0.162278
-0.157844
-0.153497
-0.149235
-0.145058
-0.140963
-0.136951
-0.133019
-0.129167
-0.125393
-0.121696
-0.118076
-0.114531
-0.111059
-0.107661
-0.104334
-0.101078
-0.0978919
-0.0947744
-0.0917247
-0.0887416
-0.0858241
-0.0829714
-0.0801824
-0.0774561
-0.0747916
-0.072188
-0.0696443
-0.0671595
-0.0647328
-0.0623633
-0.0600501
-0.0577922
-0.0555889
-0.0534391
-0.0513422
-0.0492972
-0.0473032
-0.0453596
-0.0434653
-0.0416197
-0.039822
-0.0380712
-0.0363667
-0.0347077
-0.0330934
-0.031523
-0.0299958
-0.0285111
-0.027068
-0.025666
-0.0243043
-0.0229821
-0.0216988
-0.0204537
-0.0192461
-0.0180752
-0.0169406
-0.0158414
-0.0147771
-0.013747
-0.0127505
-0.0117869
-0.0108557
-0.0099561
-0.00908767
-0.00824974
-0.00744175
-0.00666311
-0.00591324
-0.00519158
-0.00449757
-0.00383067
-0.00319033
-0.00257601
-0.00198719
-0.00142334
-0.000883958
-0.000368525
0.000123456
0.000592478
0.00103903
0.00146359
0.00186663
0.00224862
0.00261003
0.00295129
0.00327288
0.00357522
0.00385875
0.00412391
0.00437112
0.0046008
0.00481336
0.00500921
0.00518876
0.00535241
0.00550054
0.00563355
0.00575182
0.00585573
0.00594566
0.00602197
0.00608505
0.00613524
0.00617292
0.00619843
0.00621214
0.00621439
0.00620554
0.00618593
0.00615591
0.00611582
0.00606601
0.00600682
0.00593859
0.00586166
0.00577638
0.00568308
0.00558212
0.00547385
0.00535861
0.00523676
0.00510866
0.00497468
0.00483518
0.00469055
0.00454117
0.00438744
0.00422977
0.00406857
0.00390429
0.00373737
0.00356828
0.00339753
0.00322562
0.00305311
0.00288056
0.00270857
0.00253787
0.00236874
0.00220398
0.00203321
0.00191136
0.00158258
0.00282513
-16.7186
-16.6416
-16.4164
-16.0901
-15.7225
-15.3349
-14.9364
-14.5383
-14.1486
-13.7712
-13.4079
-13.0597
-12.727
-12.4093
-12.1061
-11.8168
-11.5404
-11.2763
-11.0236
-10.7816
-10.5496
-10.3269
-10.1129
-9.90709
-9.70886
-9.51776
-9.33337
-9.15526
-8.98307
-8.81645
-8.65508
-8.49868
-8.34698
-8.19971
-8.05667
-7.91762
-7.78237
-7.65074
-7.52255
-7.39765
-7.27589
-7.15712
-7.04122
-6.92806
-6.81754
-6.70953
-6.60394
-6.50068
-6.39966
-6.30079
-6.20398
-6.10918
-6.0163
-5.92527
-5.83604
-5.74855
-5.66272
-5.57852
-5.49589
-5.41478
-5.33513
-5.25692
-5.18009
-5.1046
-5.03042
-4.95751
-4.88583
-4.81534
-4.74603
-4.67784
-4.61076
-4.54476
-4.4798
-4.41586
-4.35292
-4.29095
-4.22994
-4.16984
-4.11065
-4.05234
-3.9949
-3.9383
-3.88252
-3.82756
-3.77338
-3.71997
-3.66732
-3.61541
-3.56423
-3.51376
-3.46398
-3.41489
-3.36647
-3.3187
-3.27159
-3.2251
-3.17923
-3.13398
-3.08932
-3.04526
-3.00177
-2.95885
-2.91648
-2.87467
-2.8334
-2.79266
-2.75244
-2.71274
-2.67354
-2.63484
-2.59663
-2.55891
-2.52166
-2.48488
-2.44856
-2.4127
-2.37729
-2.34232
-2.30778
-2.27368
-2.24
-2.20674
-2.17389
-2.14145
-2.10941
-2.07777
-2.04653
-2.01566
-1.98519
-1.95509
-1.92536
-1.896
-1.867
-1.83837
-1.81009
-1.78216
-1.75457
-1.72734
-1.70044
-1.67387
-1.64764
-1.62174
-1.59616
-1.5709
-1.54596
-1.52134
-1.49702
-1.47301
-1.44931
-1.42591
-1.4028
-1.37999
-1.35748
-1.33525
-1.31331
-1.29165
-1.27027
-1.24917
-1.22834
-1.20779
-1.1875
-1.16748
-1.14773
-1.12823
-1.109
-1.09002
-1.07129
-1.05281
-1.03459
-1.01661
-0.99887
-0.981375
-0.964118
-0.947097
-0.93031
-0.913756
-0.89743
-0.881332
-0.865458
-0.849807
-0.834376
-0.819163
-0.804166
-0.789382
-0.77481
-0.760447
-0.74629
-0.732339
-0.71859
-0.705042
-0.691692
-0.678538
-0.665579
-0.652811
-0.640233
-0.627844
-0.61564
-0.60362
-0.591781
-0.580123
-0.568642
-0.557336
-0.546205
-0.535245
-0.524455
-0.513832
-0.503376
-0.493083
-0.482953
-0.472982
-0.46317
-0.453514
-0.444012
-0.434663
-0.425465
-0.416416
-0.407513
-0.398756
-0.390143
-0.381671
-0.373339
-0.365146
-0.357089
-0.349166
-0.341377
-0.333719
-0.326191
-0.318791
-0.311517
-0.304368
-0.297342
-0.290438
-0.283654
-0.276988
-0.270439
-0.264006
-0.257686
-0.251479
-0.245382
-0.239395
-0.233515
-0.227742
-0.222074
-0.21651
-0.211048
-0.205687
-0.200425
-0.195261
-0.190194
-0.185222
-0.180345
-0.17556
-0.170867
-0.166264
-0.161751
-0.157325
-0.152985
-0.148731
-0.144561
-0.140474
-0.136469
-0.132544
-0.128699
-0.124932
-0.121242
-0.117628
-0.11409
-0.110625
-0.107233
-0.103913
-0.100664
-0.0974838
-0.0943726
-0.0913291
-0.0883522
-0.0854409
-0.0825942
-0.0798112
-0.0770908
-0.0744322
-0.0718343
-0.0692963
-0.0668172
-0.0643962
-0.0620322
-0.0597244
-0.057472
-0.055274
-0.0531295
-0.0510378
-0.048998
-0.0470092
-0.0450706
-0.0431814
-0.0413407
-0.0395479
-0.037802
-0.0361022
-0.034448
-0.0328383
-0.0312726
-0.0297499
-0.0282697
-0.0268312
-0.0254336
-0.0240762
-0.0227583
-0.0214793
-0.0202383
-0.0190349
-0.0178682
-0.0167376
-0.0156424
-0.0145821
-0.0135559
-0.0125632
-0.0116034
-0.0106759
-0.00978004
-0.00891526
-0.00808095
-0.00727653
-0.0065014
-0.005755
-0.00503677
-0.00434614
-0.00368257
-0.00304552
-0.00243445
-0.00184883
-0.00128814
-0.000751864
-0.000239502
0.000249451
0.000715486
0.00115909
0.00158075
0.00198092
0.00236009
0.00271871
0.00305723
0.0033761
0.00367577
0.00395666
0.00421922
0.00446386
0.00469101
0.00490107
0.00509446
0.00527157
0.00543281
0.00557856
0.00570922
0.00582517
0.00592679
0.00601445
0.00608852
0.00614937
0.00619736
0.00623285
0.0062562
0.00626776
0.00626788
0.0062569
0.00623518
0.00620305
0.00616087
0.00610896
0.00604767
0.00597734
0.0058983
0.0058109
0.00571548
0.00561237
0.00550193
0.00538449
0.00526042
0.00513005
0.00499375
0.00485188
0.00470482
0.00455293
0.00439662
0.00423627
0.00407229
0.00390511
0.00373515
0.00356288
0.00338877
0.00321331
0.00303702
0.00286045
0.00268417
0.00250886
0.00233479
0.00216464
0.00198846
0.00185891
0.00153053
0.00270963
-15.9637
-15.908
-15.7424
-15.4919
-15.1969
-14.8757
-14.5378
-14.1928
-13.8486
-13.5099
-13.1795
-12.8592
-12.5501
-12.2524
-11.9664
-11.6917
-11.4279
-11.1747
-10.9314
-10.6977
-10.4729
-10.2565
-10.0482
-9.84729
-9.65349
-9.46637
-9.28553
-9.11062
-8.94133
-8.77733
-8.61835
-8.46412
-8.3144
-8.16895
-8.02757
-7.89005
-7.75622
-7.6259
-7.49892
-7.37515
-7.25443
-7.13663
-7.02163
-6.90932
-6.79958
-6.69232
-6.58743
-6.48482
-6.38441
-6.28611
-6.18985
-6.09556
-6.00316
-5.9126
-5.8238
-5.73672
-5.65129
-5.56745
-5.48517
-5.40439
-5.32507
-5.24716
-5.17062
-5.09541
-5.02149
-4.94883
-4.87739
-4.80713
-4.73804
-4.67006
-4.60318
-4.53737
-4.4726
-4.40884
-4.34608
-4.28427
-4.22341
-4.16347
-4.10443
-4.04626
-3.98895
-3.93248
-3.87683
-3.82199
-3.76792
-3.71463
-3.66209
-3.61029
-3.55921
-3.50883
-3.45915
-3.41015
-3.36182
-3.31415
-3.26711
-3.2207
-3.17492
-3.12974
-3.08516
-3.04116
-2.99774
-2.95489
-2.91259
-2.87085
-2.82964
-2.78895
-2.74879
-2.70915
-2.67001
-2.63136
-2.5932
-2.55553
-2.51833
-2.4816
-2.44533
-2.40951
-2.37414
-2.33922
-2.30472
-2.27066
-2.23702
-2.2038
-2.17099
-2.13859
-2.10659
-2.07498
-2.04377
-2.01294
-1.9825
-1.95243
-1.92273
-1.8934
-1.86444
-1.83583
-1.80758
-1.77968
-1.75213
-1.72492
-1.69804
-1.67151
-1.6453
-1.61942
-1.59387
-1.56864
-1.54372
-1.51912
-1.49482
-1.47084
-1.44716
-1.42378
-1.4007
-1.37791
-1.35541
-1.33321
-1.31129
-1.28965
-1.26829
-1.24721
-1.2264
-1.20586
-1.1856
-1.1656
-1.14586
-1.12638
-1.10717
-1.0882
-1.0695
-1.05104
-1.03283
-1.01487
-0.997147
-0.979669
-0.962429
-0.945425
-0.928655
-0.912117