/*--------------------------------*- C++ -*----------------------------------*\
| =========                 |                                                 |
| \\      /  F ield         | OpenFOAM: The Open Source CFD Toolbox           |
|  \\    /   O peration     | Version:  2506                                  |
|   \\  /    A nd           | Website:  www.openfoam.com                      |
|    \\/     M anipulation  |                                                 |
\*---------------------------------------------------------------------------*/
FoamFile
{
    version     2.0;
    format      ascii;
    arch        "LSB;label=32;scalar=64";
    class       surfaceScalarField;
    location    "600";
    object      phi;
}
// * * * * * * * * * * * * * * * * * * * * * * * * * * * * * * * * * * * * * //

dimensions      [0 3 -1 0 0 0 0];

oriented        oriented;

internalField   nonuniform List<scalar> 
266147
(
0.00237347
0.000117012
0.0023151
5.83705e-05
0.00227865
3.64522e-05
0.00225492
2.37331e-05
0.0022381
1.6815e-05
0.00222486
1.32436e-05
0.00221383
1.10296e-05
0.00220438
9.4486e-06
0.0021961
8.28085e-06
0.00218871
7.3866e-06
0.00218204
6.67214e-06
0.00217596
6.08576e-06
0.00217036
5.5959e-06
0.00216518
5.18018e-06
0.00216036
4.82254e-06
0.00215585
4.51142e-06
0.00215161
4.23819e-06
0.00214761
3.99621e-06
0.00214383
3.78034e-06
0.00214024
3.5865e-06
0.00213683
3.41142e-06
0.00213358
3.25246e-06
0.00213047
3.10744e-06
0.0021275
2.97457e-06
0.00212465
2.85234e-06
0.00212191
2.73951e-06
0.00211927
2.63499e-06
0.00211673
2.53788e-06
0.00211429
2.44739e-06
0.00211192
2.36285e-06
0.00210964
2.28367e-06
0.00210743
2.20934e-06
0.00210529
2.13941e-06
0.00210322
2.07348e-06
0.00210121
2.01122e-06
0.00209925
1.9523e-06
0.00209736
1.89646e-06
0.00209551
1.84344e-06
0.00209372
1.79303e-06
0.00209198
1.74504e-06
0.00209028
1.69928e-06
0.00208862
1.65558e-06
0.00208701
1.61382e-06
0.00208543
1.57385e-06
0.0020839
1.53555e-06
0.0020824
1.49882e-06
0.00208094
1.46355e-06
0.00207951
1.42965e-06
0.00207811
1.39705e-06
0.00207674
1.36565e-06
0.00207541
1.33539e-06
0.0020741
1.3062e-06
0.00207282
1.27802e-06
0.00207157
1.25081e-06
0.00207035
1.22449e-06
0.00206915
1.19903e-06
0.00206797
1.17438e-06
0.00206682
1.1505e-06
0.0020657
1.12735e-06
0.00206459
1.10489e-06
0.00206351
1.08309e-06
0.00206245
1.06191e-06
0.00206141
1.04133e-06
0.00206038
1.02133e-06
0.00205938
1.00186e-06
0.0020584
9.82912e-07
0.00205743
9.6446e-07
0.00205649
9.4648e-07
0.00205556
9.28953e-07
0.00205465
9.1186e-07
0.00205375
8.9518e-07
0.00205287
8.78899e-07
0.00205201
8.62998e-07
0.00205116
8.47464e-07
0.00205033
8.3228e-07
0.00204951
8.17433e-07
0.00204871
8.02911e-07
0.00204792
7.887e-07
0.00204715
7.74788e-07
0.00204639
7.61165e-07
0.00204564
7.47819e-07
0.0020449
7.3474e-07
0.00204418
7.21919e-07
0.00204347
7.09346e-07
0.00204277
6.97013e-07
0.00204209
6.8491e-07
0.00204142
6.7303e-07
0.00204076
6.61366e-07
0.00204011
6.49909e-07
0.00203947
6.38653e-07
0.00203884
6.27591e-07
0.00203822
6.16717e-07
0.00203762
6.06024e-07
0.00203702
5.95507e-07
0.00203644
5.85159e-07
0.00203586
5.74976e-07
0.0020353
5.64952e-07
0.00203474
5.55083e-07
0.0020342
5.45363e-07
0.00203366
5.35787e-07
0.00203313
5.26353e-07
0.00203262
5.17054e-07
0.00203211
5.07887e-07
0.00203161
4.98849e-07
0.00203112
4.89935e-07
0.00203064
4.81142e-07
0.00203017
4.72466e-07
0.0020297
4.63904e-07
0.00202925
4.55452e-07
0.0020288
4.47108e-07
0.00202836
4.38869e-07
0.00202793
4.30732e-07
0.00202751
4.22693e-07
0.00202709
4.14751e-07
0.00202669
4.06902e-07
0.00202629
3.99145e-07
0.00202589
3.91476e-07
0.00202551
3.83894e-07
0.00202513
3.76396e-07
0.00202477
3.68981e-07
0.0020244
3.61645e-07
0.00202405
3.54388e-07
0.0020237
3.47207e-07
0.00202336
3.401e-07
0.00202303
3.33066e-07
0.0020227
3.26103e-07
0.00202238
3.1921e-07
0.00202207
3.12384e-07
0.00202177
3.05625e-07
0.00202147
2.9893e-07
0.00202117
2.92299e-07
0.00202089
2.85731e-07
0.00202061
2.79223e-07
0.00202034
2.72775e-07
0.00202007
2.66385e-07
0.00201981
2.60053e-07
0.00201956
2.53777e-07
0.00201931
2.47557e-07
0.00201907
2.41391e-07
0.00201883
2.35278e-07
0.0020186
2.29219e-07
0.00201838
2.23211e-07
0.00201816
2.17253e-07
0.00201795
2.11347e-07
0.00201775
2.05489e-07
0.00201755
1.99681e-07
0.00201735
1.9392e-07
0.00201716
1.88208e-07
0.00201698
1.82542e-07
0.0020168
1.76923e-07
0.00201663
1.7135e-07
0.00201647
1.65822e-07
0.00201631
1.6034e-07
0.00201615
1.54902e-07
0.002016
1.49509e-07
0.00201586
1.44159e-07
0.00201572
1.38854e-07
0.00201559
1.33591e-07
0.00201546
1.28372e-07
0.00201533
1.23196e-07
0.00201522
1.18062e-07
0.0020151
1.12971e-07
0.002015
1.07921e-07
0.00201489
1.02915e-07
0.00201479
9.79496e-08
0.0020147
9.30264e-08
0.00201461
8.81451e-08
0.00201453
8.33054e-08
0.00201445
7.85073e-08
0.00201438
7.37507e-08
0.00201431
6.90356e-08
0.00201424
6.4362e-08
0.00201418
5.97298e-08
0.00201413
5.51391e-08
0.00201408
5.05898e-08
0.00201403
4.6082e-08
0.00201399
4.16156e-08
0.00201395
3.71907e-08
0.00201392
3.28074e-08
0.00201389
2.84656e-08
0.00201387
2.41654e-08
0.00201385
1.99068e-08
0.00201383
1.56899e-08
0.00201382
1.15148e-08
0.00201381
7.38145e-09
0.00201381
3.28992e-09
0.00201381
-7.59722e-10
0.00201382
-4.76746e-09
0.00201383
-8.7332e-09
0.00201384
-1.2657e-08
0.00201385
-1.65387e-08
0.00201387
-2.03783e-08
0.0020139
-2.41758e-08
0.00201393
-2.79312e-08
0.00201396
-3.16444e-08
0.00201399
-3.53154e-08
0.00201403
-3.89443e-08
0.00201408
-4.2531e-08
0.00201412
-4.60756e-08
0.00201417
-4.9578e-08
0.00201422
-5.30383e-08
0.00201428
-5.64566e-08
0.00201434
-5.98328e-08
0.0020144
-6.3167e-08
0.00201447
-6.64593e-08
0.00201454
-6.97098e-08
0.00201461
-7.29185e-08
0.00201469
-7.60856e-08
0.00201477
-7.9211e-08
0.00201485
-8.22951e-08
0.00201494
-8.53377e-08
0.00201502
-8.83392e-08
0.00201511
-9.12996e-08
0.00201521
-9.42191e-08
0.00201531
-9.70979e-08
0.00201541
-9.99361e-08
0.00201551
-1.02734e-07
0.00201561
-1.05491e-07
0.00201572
-1.08209e-07
0.00201583
-1.10887e-07
0.00201595
-1.13525e-07
0.00201606
-1.16124e-07
0.00201618
-1.18683e-07
0.0020163
-1.21204e-07
0.00201643
-1.23686e-07
0.00201655
-1.2613e-07
0.00201668
-1.28536e-07
0.00201681
-1.30903e-07
0.00201695
-1.33234e-07
0.00201708
-1.35526e-07
0.00201722
-1.37782e-07
0.00201736
-1.40001e-07
0.0020175
-1.42184e-07
0.00201765
-1.44331e-07
0.00201779
-1.46441e-07
0.00201794
-1.48516e-07
0.00201809
-1.50556e-07
0.00201824
-1.52561e-07
0.0020184
-1.54532e-07
0.00201855
-1.56468e-07
0.00201871
-1.5837e-07
0.00201887
-1.60238e-07
0.00201904
-1.62073e-07
0.0020192
-1.63875e-07
0.00201936
-1.65645e-07
0.00201953
-1.67382e-07
0.0020197
-1.69087e-07
0.00201987
-1.7076e-07
0.00202004
-1.72402e-07
0.00202022
-1.74013e-07
0.00202039
-1.75593e-07
0.00202057
-1.77142e-07
0.00202075
-1.78662e-07
0.00202093
-1.80151e-07
0.00202111
-1.81611e-07
0.00202129
-1.83042e-07
0.00202148
-1.84444e-07
0.00202166
-1.85818e-07
0.00202185
-1.87163e-07
0.00202204
-1.8848e-07
0.00202223
-1.89769e-07
0.00202242
-1.91031e-07
0.00202261
-1.92266e-07
0.00202281
-1.93474e-07
0.002023
-1.94656e-07
0.0020232
-1.95811e-07
0.00202339
-1.9694e-07
0.00202359
-1.98044e-07
0.00202379
-1.99122e-07
0.00202399
-2.00175e-07
0.00202419
-2.01203e-07
0.0020244
-2.02207e-07
0.0020246
-2.03186e-07
0.0020248
-2.04141e-07
0.00202501
-2.05072e-07
0.00202521
-2.0598e-07
0.00202542
-2.06865e-07
0.00202563
-2.07726e-07
0.00202584
-2.08565e-07
0.00202605
-2.09381e-07
0.00202626
-2.10174e-07
0.00202647
-2.10946e-07
0.00202668
-2.11695e-07
0.00202689
-2.12423e-07
0.0020271
-2.1313e-07
0.00202732
-2.13816e-07
0.00202753
-2.1448e-07
0.00202775
-2.15124e-07
0.00202796
-2.15747e-07
0.00202818
-2.16351e-07
0.0020284
-2.16934e-07
0.00202861
-2.17497e-07
0.00202883
-2.18041e-07
0.00202905
-2.18565e-07
0.00202927
-2.1907e-07
0.00202949
-2.19556e-07
0.00202971
-2.20024e-07
0.00202993
-2.20473e-07
0.00203015
-2.20904e-07
0.00203037
-2.21316e-07
0.00203059
-2.21711e-07
0.00203082
-2.22088e-07
0.00203104
-2.22448e-07
0.00203126
-2.2279e-07
0.00203148
-2.23115e-07
0.00203171
-2.23424e-07
0.00203193
-2.23716e-07
0.00203216
-2.23991e-07
0.00203238
-2.2425e-07
0.0020326
-2.24493e-07
0.00203283
-2.2472e-07
0.00203305
-2.24932e-07
0.00203328
-2.25128e-07
0.0020335
-2.25309e-07
0.00203373
-2.25474e-07
0.00203396
-2.25625e-07
0.00203418
-2.25761e-07
0.00203441
-2.25883e-07
0.00203463
-2.2599e-07
0.00203486
-2.26083e-07
0.00203509
-2.26162e-07
0.00203531
-2.26228e-07
0.00203554
-2.2628e-07
0.00203576
-2.26318e-07
0.00203599
-2.26343e-07
0.00203622
-2.26356e-07
0.00203644
-2.26355e-07
0.00203667
-2.26341e-07
0.0020369
-2.26315e-07
0.00203712
-2.26277e-07
0.00203735
-2.26227e-07
0.00203757
-2.26164e-07
0.0020378
-2.26089e-07
0.00203803
-2.26003e-07
0.00203825
-2.25905e-07
0.00203848
-2.25796e-07
0.0020387
-2.25675e-07
0.00203893
-2.25543e-07
0.00203916
-2.254e-07
0.00203938
-2.25247e-07
0.00203961
-2.25082e-07
0.00203983
-2.24907e-07
0.00204005
-2.24721e-07
0.00204028
-2.24525e-07
0.0020405
-2.24318e-07
0.00204073
-2.24102e-07
0.00204095
-2.23875e-07
0.00204118
-2.23638e-07
0.0020414
-2.23391e-07
0.00204162
-2.23134e-07
0.00204184
-2.22867e-07
0.00204207
-2.22591e-07
0.00204229
-2.22305e-07
0.00204251
-2.22009e-07
0.00204273
-2.21703e-07
0.00204295
-2.21388e-07
0.00204318
-2.21064e-07
0.0020434
-2.2073e-07
0.00204362
-2.20386e-07
0.00204384
-2.20033e-07
0.00204406
-2.1967e-07
0.00204428
-2.19297e-07
0.00204449
-2.18915e-07
0.00204471
-2.18523e-07
0.00204493
-2.18121e-07
0.00204515
-2.1771e-07
0.00204537
-2.17288e-07
0.00204558
-2.16857e-07
0.0020458
-2.16415e-07
0.00204602
-2.15963e-07
0.00204623
-2.155e-07
0.00204645
-2.15026e-07
0.00204666
-2.14542e-07
0.00204687
-2.14046e-07
0.00204709
-2.13539e-07
0.0020473
-2.13021e-07
0.00204751
-2.1249e-07
0.00204773
-2.11947e-07
0.00204794
-2.11391e-07
0.00204815
-2.10822e-07
0.00204836
-2.10239e-07
0.00204857
-2.09642e-07
0.00204878
-2.0903e-07
0.00204899
-2.08403e-07
0.00204919
-2.0776e-07
0.0020494
-2.071e-07
0.00204961
-2.06422e-07
0.00204981
-2.05725e-07
0.00205002
-2.05009e-07
0.00205022
-2.04271e-07
0.00205043
-2.03512e-07
0.00205063
-2.02728e-07
0.00205083
-2.0192e-07
0.00205103
-2.01083e-07
0.00205123
-2.0022e-07
0.00205143
-1.9931e-07
0.00205163
-1.98423e-07
0.00205183
-1.9723e-07
0.00205202
-1.97264e-07
-1.91503e-07
0.00243699
0.000170511
0.00238645
0.000108911
0.00234549
7.74065e-05
0.00231243
5.6799e-05
0.00228645
4.27951e-05
0.00226591
3.37839e-05
0.00224923
2.77072e-05
0.00223536
2.33222e-05
0.00222357
2.00655e-05
0.00221337
1.75901e-05
0.00220439
1.56512e-05
0.00219638
1.40923e-05
0.00218916
1.2814e-05
0.0021826
1.17477e-05
0.00217657
1.08449e-05
0.00217101
1.00705e-05
0.00216585
9.39904e-06
0.00216104
8.81111e-06
0.00215653
8.29195e-06
0.00215228
7.83009e-06
0.00214828
7.41644e-06
0.00214449
7.04376e-06
0.00214089
6.70617e-06
0.00213746
6.39886e-06
0.0021342
6.11789e-06
0.00213108
5.85993e-06
0.00212809
5.62223e-06
0.00212523
5.40244e-06
0.00212247
5.19857e-06
0.00211983
5.00889e-06
0.00211728
4.83195e-06
0.00211482
4.66647e-06
0.00211245
4.51133e-06
0.00211016
4.36556e-06
0.00210794
4.22831e-06
0.0021058
4.09883e-06
0.00210372
3.97646e-06
0.0021017
3.86059e-06
0.00209974
3.7507e-06
0.00209784
3.64632e-06
0.00209599
3.54703e-06
0.00209419
3.45244e-06
0.00209245
3.36221e-06
0.00209074
3.27604e-06
0.00208909
3.19363e-06
0.00208747
3.11473e-06
0.00208589
3.03911e-06
0.00208436
2.96655e-06
0.00208286
2.89687e-06
0.00208139
2.82988e-06
0.00207996
2.76541e-06
0.00207857
2.70332e-06
0.0020772
2.64347e-06
0.00207587
2.58573e-06
0.00207456
2.52997e-06
0.00207328
2.4761e-06
0.00207203
2.424e-06
0.00207081
2.37359e-06
0.00206961
2.32477e-06
0.00206844
2.27747e-06
0.00206729
2.2316e-06
0.00206617
2.18709e-06
0.00206506
2.14389e-06
0.00206398
2.10191e-06
0.00206292
2.06112e-06
0.00206189
2.02145e-06
0.00206087
1.98285e-06
0.00205987
1.94527e-06
0.00205889
1.90866e-06
0.00205793
1.87299e-06
0.00205698
1.83822e-06
0.00205606
1.80429e-06
0.00205515
1.77119e-06
0.00205426
1.73887e-06
0.00205338
1.70731e-06
0.00205252
1.67646e-06
0.00205168
1.64631e-06
0.00205085
1.61683e-06
0.00205004
1.58799e-06
0.00204924
1.55976e-06
0.00204846
1.53212e-06
0.00204769
1.50505e-06
0.00204693
1.47854e-06
0.00204619
1.45254e-06
0.00204546
1.42706e-06
0.00204474
1.40207e-06
0.00204404
1.37755e-06
0.00204334
1.35349e-06
0.00204266
1.32987e-06
0.00204199
1.30668e-06
0.00204134
1.28389e-06
0.00204069
1.26151e-06
0.00204006
1.2395e-06
0.00203944
1.21787e-06
0.00203883
1.1966e-06
0.00203823
1.17567e-06
0.00203764
1.15508e-06
0.00203706
1.13482e-06
0.00203649
1.11487e-06
0.00203593
1.09522e-06
0.00203538
1.07587e-06
0.00203484
1.05681e-06
0.00203431
1.03803e-06
0.00203379
1.01951e-06
0.00203328
1.00126e-06
0.00203277
9.8326e-07
0.00203228
9.65507e-07
0.0020318
9.47993e-07
0.00203132
9.30711e-07
0.00203085
9.13655e-07
0.0020304
8.96818e-07
0.00202995
8.80194e-07
0.00202951
8.63777e-07
0.00202907
8.47562e-07
0.00202865
8.31543e-07
0.00202823
8.15715e-07
0.00202782
8.00072e-07
0.00202742
7.84611e-07
0.00202703
7.69326e-07
0.00202664
7.54212e-07
0.00202627
7.39266e-07
0.0020259
7.24482e-07
0.00202553
7.09858e-07
0.00202518
6.9539e-07
0.00202483
6.81073e-07
0.00202449
6.66903e-07
0.00202416
6.52879e-07
0.00202383
6.38996e-07
0.00202351
6.25251e-07
0.0020232
6.1164e-07
0.00202289
5.98162e-07
0.00202259
5.84814e-07
0.0020223
5.71592e-07
0.00202201
5.58494e-07
0.00202174
5.45518e-07
0.00202146
5.32661e-07
0.0020212
5.19921e-07
0.00202094
5.07296e-07
0.00202068
4.94784e-07
0.00202044
4.82383e-07
0.0020202
4.7009e-07
0.00201996
4.57905e-07
0.00201973
4.45826e-07
0.00201951
4.3385e-07
0.00201929
4.21977e-07
0.00201908
4.10204e-07
0.00201888
3.98532e-07
0.00201868
3.86957e-07
0.00201849
3.7548e-07
0.0020183
3.64099e-07
0.00201812
3.52812e-07
0.00201794
3.4162e-07
0.00201777
3.3052e-07
0.00201761
3.19513e-07
0.00201745
3.08596e-07
0.00201729
2.97771e-07
0.00201715
2.87034e-07
0.002017
2.76387e-07
0.00201687
2.65829e-07
0.00201673
2.55359e-07
0.00201661
2.44976e-07
0.00201648
2.3468e-07
0.00201637
2.2447e-07
0.00201626
2.14347e-07
0.00201615
2.0431e-07
0.00201605
1.94359e-07
0.00201595
1.84493e-07
0.00201586
1.74712e-07
0.00201577
1.65016e-07
0.00201569
1.55405e-07
0.00201562
1.45878e-07
0.00201554
1.36437e-07
0.00201548
1.27079e-07
0.00201541
1.17807e-07
0.00201536
1.08618e-07
0.0020153
9.95146e-08
0.00201525
9.04952e-08
0.00201521
8.15602e-08
0.00201517
7.27097e-08
0.00201513
6.39438e-08
0.0020151
5.52624e-08
0.00201508
4.66657e-08
0.00201505
3.81536e-08
0.00201504
2.97263e-08
0.00201502
2.13838e-08
0.00201501
1.31263e-08
0.00201501
4.95365e-09
0.002015
-3.13392e-09
0.00201501
-1.11364e-08
0.00201501
-1.90537e-08
0.00201502
-2.68859e-08
0.00201504
-3.46327e-08
0.00201506
-4.22943e-08
0.00201508
-4.98705e-08
0.0020151
-5.73615e-08
0.00201513
-6.4767e-08
0.00201517
-7.20873e-08
0.0020152
-7.93222e-08
0.00201524
-8.64719e-08
0.00201529
-9.35364e-08
0.00201533
-1.00516e-07
0.00201539
-1.0741e-07
0.00201544
-1.14219e-07
0.0020155
-1.20944e-07
0.00201556
-1.27584e-07
0.00201562
-1.34139e-07
0.00201569
-1.4061e-07
0.00201576
-1.46997e-07
0.00201584
-1.533e-07
0.00201591
-1.59519e-07
0.00201599
-1.65655e-07
0.00201608
-1.71708e-07
0.00201616
-1.77678e-07
0.00201625
-1.83565e-07
0.00201635
-1.8937e-07
0.00201644
-1.95093e-07
0.00201654
-2.00735e-07
0.00201664
-2.06296e-07
0.00201674
-2.11776e-07
0.00201685
-2.17176e-07
0.00201696
-2.22496e-07
0.00201707
-2.27736e-07
0.00201718
-2.32898e-07
0.0020173
-2.37981e-07
0.00201742
-2.42987e-07
0.00201754
-2.47915e-07
0.00201767
-2.52766e-07
0.00201779
-2.57542e-07
0.00201792
-2.62241e-07
0.00201805
-2.66865e-07
0.00201819
-2.71415e-07
0.00201832
-2.7589e-07
0.00201846
-2.80293e-07
0.0020186
-2.84622e-07
0.00201874
-2.88879e-07
0.00201889
-2.93065e-07
0.00201903
-2.9718e-07
0.00201918
-3.01224e-07
0.00201933
-3.05199e-07
0.00201949
-3.09105e-07
0.00201964
-3.12942e-07
0.0020198
-3.16712e-07
0.00201996
-3.20415e-07
0.00202012
-3.24051e-07
0.00202028
-3.27621e-07
0.00202044
-3.31126e-07
0.00202061
-3.34567e-07
0.00202077
-3.37944e-07
0.00202094
-3.41258e-07
0.00202111
-3.44509e-07
0.00202129
-3.47698e-07
0.00202146
-3.50826e-07
0.00202163
-3.53893e-07
0.00202181
-3.569e-07
0.00202199
-3.59848e-07
0.00202217
-3.62737e-07
0.00202235
-3.65568e-07
0.00202253
-3.68342e-07
0.00202272
-3.71059e-07
0.0020229
-3.73719e-07
0.00202309
-3.76323e-07
0.00202328
-3.78873e-07
0.00202347
-3.81368e-07
0.00202366
-3.83809e-07
0.00202385
-3.86197e-07
0.00202404
-3.88531e-07
0.00202423
-3.90814e-07
0.00202443
-3.93045e-07
0.00202463
-3.95225e-07
0.00202482
-3.97354e-07
0.00202502
-3.99434e-07
0.00202522
-4.01463e-07
0.00202542
-4.03444e-07
0.00202562
-4.05377e-07
0.00202582
-4.07261e-07
0.00202603
-4.09098e-07
0.00202623
-4.10889e-07
0.00202644
-4.12632e-07
0.00202664
-4.1433e-07
0.00202685
-4.15983e-07
0.00202706
-4.17591e-07
0.00202726
-4.19154e-07
0.00202747
-4.20673e-07
0.00202768
-4.22149e-07
0.00202789
-4.23582e-07
0.0020281
-4.24972e-07
0.00202832
-4.26321e-07
0.00202853
-4.27627e-07
0.00202874
-4.28893e-07
0.00202896
-4.30118e-07
0.00202917
-4.31302e-07
0.00202938
-4.32447e-07
0.0020296
-4.33552e-07
0.00202982
-4.34619e-07
0.00203003
-4.35647e-07
0.00203025
-4.36637e-07
0.00203047
-4.37589e-07
0.00203069
-4.38504e-07
0.0020309
-4.39382e-07
0.00203112
-4.40224e-07
0.00203134
-4.4103e-07
0.00203156
-4.41801e-07
0.00203178
-4.42536e-07
0.002032
-4.43237e-07
0.00203222
-4.43903e-07
0.00203244
-4.44536e-07
0.00203267
-4.45135e-07
0.00203289
-4.45701e-07
0.00203311
-4.46235e-07
0.00203333
-4.46736e-07
0.00203355
-4.47205e-07
0.00203378
-4.47643e-07
0.002034
-4.4805e-07
0.00203422
-4.48426e-07
0.00203445
-4.48771e-07
0.00203467
-4.49087e-07
0.00203489
-4.49374e-07
0.00203512
-4.49631e-07
0.00203534
-4.49859e-07
0.00203556
-4.5006e-07
0.00203579
-4.50232e-07
0.00203601
-4.50376e-07
0.00203624
-4.50493e-07
0.00203646
-4.50583e-07
0.00203669
-4.50647e-07
0.00203691
-4.50684e-07
0.00203713
-4.50696e-07
0.00203736
-4.50682e-07
0.00203758
-4.50643e-07
0.00203781
-4.50579e-07
0.00203803
-4.5049e-07
0.00203826
-4.50378e-07
0.00203848
-4.50241e-07
0.0020387
-4.50081e-07
0.00203893
-4.49897e-07
0.00203915
-4.49691e-07
0.00203938
-4.49461e-07
0.0020396
-4.4921e-07
0.00203982
-4.48936e-07
0.00204005
-4.4864e-07
0.00204027
-4.48323e-07
0.00204049
-4.47985e-07
0.00204072
-4.47625e-07
0.00204094
-4.47244e-07
0.00204116
-4.46843e-07
0.00204138
-4.46421e-07
0.00204161
-4.45979e-07
0.00204183
-4.45516e-07
0.00204205
-4.45034e-07
0.00204227
-4.44532e-07
0.00204249
-4.4401e-07
0.00204271
-4.43469e-07
0.00204293
-4.42908e-07
0.00204315
-4.42328e-07
0.00204337
-4.41729e-07
0.00204359
-4.41111e-07
0.00204381
-4.40473e-07
0.00204403
-4.39817e-07
0.00204425
-4.39141e-07
0.00204447
-4.38447e-07
0.00204469
-4.37733e-07
0.0020449
-4.37e-07
0.00204512
-4.36247e-07
0.00204534
-4.35476e-07
0.00204556
-4.34685e-07
0.00204577
-4.33874e-07
0.00204599
-4.33043e-07
0.0020462
-4.32193e-07
0.00204642
-4.31322e-07
0.00204663
-4.3043e-07
0.00204685
-4.29518e-07
0.00204706
-4.28584e-07
0.00204727
-4.27629e-07
0.00204748
-4.26651e-07
0.0020477
-4.25651e-07
0.00204791
-4.24627e-07
0.00204812
-4.2358e-07
0.00204833
-4.22508e-07
0.00204854
-4.21411e-07
0.00204875
-4.20287e-07
0.00204896
-4.19136e-07
0.00204917
-4.17958e-07
0.00204937
-4.1675e-07
0.00204958
-4.15511e-07
0.00204979
-4.14241e-07
0.00204999
-4.12937e-07
0.0020502
-4.11598e-07
0.0020504
-4.10221e-07
0.00205061
-4.08806e-07
0.00205081
-4.07349e-07
0.00205101
-4.05848e-07
0.00205121
-4.043e-07
0.00205142
-4.02702e-07
0.00205162
-4.01049e-07
0.00205181
-3.99339e-07
0.00205201
-3.97557e-07
0.00205221
-3.95727e-07
0.00205241
-3.93693e-07
0.0020526
-3.91911e-07
-3.87724e-07
0.00247084
0.000190158
0.00243653
0.000143226
0.00240244
0.00011149
0.00237102
8.82235e-05
0.00234325
7.05571e-05
0.00231943
5.76038e-05
0.00229907
4.80701e-05
0.00228155
4.08453e-05
0.00226635
3.52648e-05
0.00225305
3.08915e-05
0.0022413
2.74024e-05
0.00223082
2.45687e-05
0.0022214
2.22317e-05
0.00221287
2.02778e-05
0.00220509
1.86236e-05
0.00219796
1.72074e-05
0.00219137
1.59826e-05
0.00218527
1.4914e-05
0.00217959
1.39741e-05
0.00217428
1.31413e-05
0.00216929
1.23987e-05
0.00216461
1.17325e-05
0.00216018
1.11316e-05
0.00215599
1.0587e-05
0.00215202
1.00911e-05
0.00214824
9.63768e-06
0.00214464
9.22152e-06
0.00214121
8.8382e-06
0.00213792
8.48395e-06
0.00213477
8.15559e-06
0.00213176
7.85033e-06
0.00212886
7.5658e-06
0.00212607
7.29994e-06
0.00212338
7.05092e-06
0.00212079
6.81717e-06
0.00211829
6.59731e-06
0.00211588
6.39009e-06
0.00211355
6.19444e-06
0.00211129
6.00938e-06
0.0021091
5.83404e-06
0.00210698
5.66767e-06
0.00210492
5.50956e-06
0.00210293
5.35909e-06
0.00210099
5.2157e-06
0.0020991
5.07888e-06
0.00209727
4.94816e-06
0.00209548
4.82313e-06
0.00209375
4.70341e-06
0.00209205
4.58865e-06
0.00209041
4.47852e-06
0.0020888
4.37274e-06
0.00208723
4.27104e-06
0.0020857
4.17316e-06
0.00208421
4.0789e-06
0.00208275
3.98803e-06
0.00208133
3.90036e-06
0.00207993
3.81571e-06
0.00207857
3.73392e-06
0.00207724
3.65483e-06
0.00207594
3.5783e-06
0.00207467
3.50419e-06
0.00207342
3.43239e-06
0.00207221
3.36277e-06
0.00207101
3.29522e-06
0.00206984
3.22965e-06
0.0020687
3.16596e-06
0.00206758
3.10406e-06
0.00206648
3.04387e-06
0.0020654
2.98531e-06
0.00206435
2.9283e-06
0.00206331
2.87278e-06
0.0020623
2.81868e-06
0.0020613
2.76594e-06
0.00206033
2.71451e-06
0.00205937
2.66432e-06
0.00205843
2.61532e-06
0.00205751
2.56747e-06
0.00205661
2.52072e-06
0.00205572
2.47502e-06
0.00205485
2.43034e-06
0.00205399
2.38663e-06
0.00205316
2.34386e-06
0.00205233
2.30199e-06
0.00205152
2.26099e-06
0.00205073
2.22082e-06
0.00204995
2.18145e-06
0.00204919
2.14286e-06
0.00204843
2.10502e-06
0.0020477
2.0679e-06
0.00204697
2.03147e-06
0.00204626
1.99571e-06
0.00204556
1.96059e-06
0.00204487
1.92611e-06
0.0020442
1.89222e-06
0.00204354
1.85892e-06
0.00204289
1.82619e-06
0.00204225
1.794e-06
0.00204162
1.76234e-06
0.002041
1.73119e-06
0.0020404
1.70053e-06
0.0020398
1.67035e-06
0.00203922
1.64064e-06
0.00203865
1.61137e-06
0.00203808
1.58254e-06
0.00203753
1.55414e-06
0.00203699
1.52614e-06
0.00203645
1.49854e-06
0.00203593
1.47133e-06
0.00203542
1.44449e-06
0.00203491
1.41801e-06
0.00203442
1.39189e-06
0.00203393
1.36611e-06
0.00203346
1.34067e-06
0.00203299
1.31554e-06
0.00203253
1.29073e-06
0.00203208
1.26623e-06
0.00203164
1.24203e-06
0.0020312
1.21812e-06
0.00203078
1.19449e-06
0.00203036
1.17113e-06
0.00202995
1.14804e-06
0.00202955
1.12522e-06
0.00202916
1.10265e-06
0.00202877
1.08032e-06
0.0020284
1.05824e-06
0.00202803
1.0364e-06
0.00202766
1.01478e-06
0.00202731
9.93397e-07
0.00202696
9.72229e-07
0.00202662
9.51276e-07
0.00202629
9.30534e-07
0.00202597
9.09998e-07
0.00202565
8.89663e-07
0.00202534
8.69526e-07
0.00202503
8.49582e-07
0.00202474
8.29828e-07
0.00202444
8.10259e-07
0.00202416
7.90873e-07
0.00202388
7.71666e-07
0.00202361
7.52634e-07
0.00202335
7.33775e-07
0.00202309
7.15086e-07
0.00202284
6.96563e-07
0.0020226
6.78205e-07
0.00202236
6.60009e-07
0.00202213
6.41972e-07
0.0020219
6.24092e-07
0.00202168
6.06367e-07
0.00202147
5.88795e-07
0.00202126
5.71374e-07
0.00202106
5.54103e-07
0.00202087
5.36978e-07
0.00202068
5.2e-07
0.00202049
5.03167e-07
0.00202032
4.86476e-07
0.00202014
4.69927e-07
0.00201998
4.53519e-07
0.00201982
4.3725e-07
0.00201966
4.2112e-07
0.00201951
4.05127e-07
0.00201937
3.89271e-07
0.00201923
3.7355e-07
0.00201909
3.57964e-07
0.00201897
3.42513e-07
0.00201884
3.27196e-07
0.00201873
3.12011e-07
0.00201861
2.9696e-07
0.00201851
2.8204e-07
0.0020184
2.67253e-07
0.00201831
2.52597e-07
0.00201821
2.38072e-07
0.00201813
2.23679e-07
0.00201804
2.09416e-07
0.00201797
1.95284e-07
0.00201789
1.81282e-07
0.00201783
1.67411e-07
0.00201776
1.5367e-07
0.0020177
1.40059e-07
0.00201765
1.26579e-07
0.0020176
1.13229e-07
0.00201756
1.00009e-07
0.00201752
8.69191e-08
0.00201748
7.39596e-08
0.00201745
6.11304e-08
0.00201742
4.84315e-08
0.0020174
3.5863e-08
0.00201738
2.34249e-08
0.00201737
1.11172e-08
0.00201736
-1.06001e-09
0.00201735
-1.31067e-08
0.00201735
-2.50229e-08
0.00201735
-3.68085e-08
0.00201736
-4.84636e-08
0.00201737
-5.99881e-08
0.00201738
-7.13821e-08
0.0020174
-8.26457e-08
0.00201742
-9.37788e-08
0.00201745
-1.04782e-07
0.00201748
-1.15654e-07
0.00201751
-1.26397e-07
0.00201754
-1.37009e-07
0.00201758
-1.47492e-07
0.00201763
-1.57845e-07
0.00201768
-1.68069e-07
0.00201773
-1.78164e-07
0.00201778
-1.8813e-07
0.00201784
-1.97968e-07
0.0020179
-2.07677e-07
0.00201796
-2.17259e-07
0.00201803
-2.26713e-07
0.0020181
-2.3604e-07
0.00201817
-2.45241e-07
0.00201825
-2.54315e-07
0.00201833
-2.63264e-07
0.00201841
-2.72088e-07
0.0020185
-2.80788e-07
0.00201859
-2.89364e-07
0.00201868
-2.97816e-07
0.00201877
-3.06146e-07
0.00201887
-3.14354e-07
0.00201897
-3.22441e-07
0.00201907
-3.30407e-07
0.00201918
-3.38254e-07
0.00201929
-3.45981e-07
0.0020194
-3.5359e-07
0.00201951
-3.61082e-07
0.00201963
-3.68457e-07
0.00201974
-3.75717e-07
0.00201986
-3.82861e-07
0.00201999
-3.89892e-07
0.00202011
-3.96809e-07
0.00202024
-4.03614e-07
0.00202037
-4.10308e-07
0.0020205
-4.16891e-07
0.00202064
-4.23365e-07
0.00202077
-4.2973e-07
0.00202091
-4.35988e-07
0.00202105
-4.4214e-07
0.0020212
-4.48185e-07
0.00202134
-4.54126e-07
0.00202149
-4.59964e-07
0.00202164
-4.65699e-07
0.00202179
-4.71332e-07
0.00202194
-4.76864e-07
0.0020221
-4.82297e-07
0.00202225
-4.87631e-07
0.00202241
-4.92867e-07
0.00202257
-4.98007e-07
0.00202273
-5.03051e-07
0.0020229
-5.08e-07
0.00202306
-5.12855e-07
0.00202323
-5.17618e-07
0.0020234
-5.22288e-07
0.00202357
-5.26868e-07
0.00202374
-5.31358e-07
0.00202391
-5.35759e-07
0.00202409
-5.40072e-07
0.00202426
-5.44298e-07
0.00202444
-5.48437e-07
0.00202462
-5.52492e-07
0.0020248
-5.56462e-07
0.00202498
-5.60349e-07
0.00202516
-5.64153e-07
0.00202535
-5.67876e-07
0.00202553
-5.71517e-07
0.00202572
-5.75079e-07
0.00202591
-5.78562e-07
0.00202609
-5.81967e-07
0.00202628
-5.85294e-07
0.00202648
-5.88545e-07
0.00202667
-5.9172e-07
0.00202686
-5.9482e-07
0.00202706
-5.97847e-07
0.00202725
-6.008e-07
0.00202745
-6.0368e-07
0.00202764
-6.06489e-07
0.00202784
-6.09227e-07
0.00202804
-6.11894e-07
0.00202824
-6.14493e-07
0.00202844
-6.17022e-07
0.00202865
-6.19484e-07
0.00202885
-6.21878e-07
0.00202905
-6.24206e-07
0.00202926
-6.26469e-07
0.00202946
-6.28666e-07
0.00202967
-6.30799e-07
0.00202987
-6.32868e-07
0.00203008
-6.34875e-07
0.00203029
-6.36819e-07
0.0020305
-6.38701e-07
0.00203071
-6.40523e-07
0.00203092
-6.42285e-07
0.00203113
-6.43987e-07
0.00203134
-6.4563e-07
0.00203155
-6.47215e-07
0.00203176
-6.48742e-07
0.00203197
-6.50213e-07
0.00203219
-6.51627e-07
0.0020324
-6.52986e-07
0.00203261
-6.5429e-07
0.00203283
-6.55539e-07
0.00203304
-6.56735e-07
0.00203326
-6.57878e-07
0.00203348
-6.58968e-07
0.00203369
-6.60007e-07
0.00203391
-6.60994e-07
0.00203412
-6.6193e-07
0.00203434
-6.62817e-07
0.00203456
-6.63655e-07
0.00203478
-6.64443e-07
0.00203499
-6.65184e-07
0.00203521
-6.65877e-07
0.00203543
-6.66522e-07
0.00203565
-6.67122e-07
0.00203587
-6.67676e-07
0.00203609
-6.68185e-07
0.00203631
-6.68649e-07
0.00203653
-6.69069e-07
0.00203675
-6.69445e-07
0.00203697
-6.69779e-07
0.00203719
-6.7007e-07
0.00203741
-6.70319e-07
0.00203763
-6.70528e-07
0.00203785
-6.70695e-07
0.00203807
-6.70823e-07
0.00203829
-6.70911e-07
0.00203851
-6.70959e-07
0.00203873
-6.70969e-07
0.00203895
-6.70941e-07
0.00203917
-6.70876e-07
0.00203939
-6.70774e-07
0.00203961
-6.70634e-07
0.00203983
-6.70459e-07
0.00204005
-6.70249e-07
0.00204027
-6.70003e-07
0.00204049
-6.69722e-07
0.00204071
-6.69407e-07
0.00204093
-6.69058e-07
0.00204115
-6.68676e-07
0.00204137
-6.68261e-07
0.00204159
-6.67813e-07
0.00204181
-6.67333e-07
0.00204203
-6.66821e-07
0.00204225
-6.66278e-07
0.00204246
-6.65703e-07
0.00204268
-6.65097e-07
0.0020429
-6.64461e-07
0.00204312
-6.63795e-07
0.00204334
-6.63098e-07
0.00204356
-6.62372e-07
0.00204377
-6.61616e-07
0.00204399
-6.60831e-07
0.00204421
-6.60016e-07
0.00204442
-6.59173e-07
0.00204464
-6.583e-07
0.00204486
-6.57399e-07
0.00204507
-6.56469e-07
0.00204529
-6.5551e-07
0.0020455
-6.54523e-07
0.00204572
-6.53507e-07
0.00204593
-6.52462e-07
0.00204615
-6.51389e-07
0.00204636
-6.50287e-07
0.00204658
-6.49156e-07
0.00204679
-6.47995e-07
0.002047
-6.46806e-07
0.00204721
-6.45586e-07
0.00204743
-6.44337e-07
0.00204764
-6.43057e-07
0.00204785
-6.41747e-07
0.00204806
-6.40405e-07
0.00204827
-6.39032e-07
0.00204848
-6.37626e-07
0.00204869
-6.36187e-07
0.0020489
-6.34714e-07
0.00204911
-6.33207e-07
0.00204932
-6.31664e-07
0.00204952
-6.30084e-07
0.00204973
-6.28467e-07
0.00204994
-6.26811e-07
0.00205014
-6.25114e-07
0.00205035
-6.23376e-07
0.00205055
-6.21594e-07
0.00205076
-6.19767e-07
0.00205096
-6.17892e-07
0.00205117
-6.15967e-07
0.00205137
-6.1399e-07
0.00205157
-6.11959e-07
0.00205177
-6.09868e-07
0.00205197
-6.07717e-07
0.00205217
-6.055e-07
0.00205237
-6.03213e-07
0.00205257
-6.00851e-07
0.00205276
-5.9841e-07
0.00205296
-5.95881e-07
0.00205316
-5.93255e-07
0.00205335
-5.90534e-07
0.00205355
-5.87622e-07
0.00205374
-5.84732e-07
-5.79991e-07
0.00248171
0.000198932
0.00246142
0.000163518
0.00243772
0.000135196
0.00241325
0.000112692
0.00238933
9.44686e-05
0.00236699
7.99505e-05
0.00234659
6.84696e-05
0.00232814
5.92976e-05
0.00231151
5.1895e-05
0.00229652
4.58736e-05
0.002283
4.09284e-05
0.00227074
3.68228e-05
0.0022596
3.33788e-05
0.00224941
3.04615e-05
0.00224007
2.79673e-05
0.00223146
2.58162e-05
0.0022235
2.39459e-05
0.0022161
2.23078e-05
0.00220921
2.08631e-05
0.00220277
1.9581e-05
0.00219674
1.84365e-05
0.00219106
1.74094e-05
0.00218571
1.64831e-05
0.00218065
1.5644e-05
0.00217586
1.48805e-05
0.00217132
1.41832e-05
0.00216699
1.35439e-05
0.00216288
1.29559e-05
0.00215895
1.24133e-05
0.00215519
1.19112e-05
0.0021516
1.14452e-05
0.00214815
1.10115e-05
0.00214484
1.0607e-05
0.00214167
1.02289e-05
0.00213861
9.87456e-06
0.00213566
9.54188e-06
0.00213282
9.22891e-06
0.00213008
8.93394e-06
0.00212744
8.65545e-06
0.00212488
8.39208e-06
0.00212241
8.14261e-06
0.00212001
7.90595e-06
0.00211769
7.68112e-06
0.00211544
7.46724e-06
0.00211325
7.2635e-06
0.00211113
7.06919e-06
0.00210907
6.88363e-06
0.00210707
6.70624e-06
0.00210512
6.53647e-06
0.00210322
6.37382e-06
0.00210138