/*--------------------------------*- C++ -*----------------------------------*\
| =========                 |                                                 |
| \\      /  F ield         | OpenFOAM: The Open Source CFD Toolbox           |
|  \\    /   O peration     | Version:  2506                                  |
|   \\  /    A nd           | Website:  www.openfoam.com                      |
|    \\/     M anipulation  |                                                 |
\*---------------------------------------------------------------------------*/
FoamFile
{
    version     2.0;
    format      ascii;
    arch        "LSB;label=32;scalar=64";
    class       volVectorField;
    location    "600";
    object      U;
}
// * * * * * * * * * * * * * * * * * * * * * * * * * * * * * * * * * * * * * //

dimensions      [0 1 -1 0 0 0 0];

internalField   nonuniform List<vector> 
131949
(
(9.79004 0.50869 0)
(9.35424 0.191718 0)
(9.14346 0.0846577 0)
(9.05442 0.0439538 0)
(8.98406 0.0273119 0)
(8.92302 0.0209583 0)
(8.87475 0.0179551 0)
(8.83487 0.0158986 0)
(8.79991 0.0143151 0)
(8.76875 0.0130461 0)
(8.74079 0.0119815 0)
(8.71541 0.011069 0)
(8.69215 0.010281 0)
(8.67067 0.00959512 0)
(8.65072 0.00899281 0)
(8.6321 0.00846 0)
(8.61463 0.0079856 0)
(8.5982 0.00756061 0)
(8.58267 0.00717775 0)
(8.56796 0.00683105 0)
(8.55398 0.00651561 0)
(8.54067 0.00622736 0)
(8.52796 0.00596288 0)
(8.51581 0.00571933 0)
(8.50417 0.00549427 0)
(8.49299 0.00528563 0)
(8.48225 0.00509165 0)
(8.47191 0.00491079 0)
(8.46195 0.00474173 0)
(8.45234 0.00458332 0)
(8.44305 0.00443456 0)
(8.43407 0.00429457 0)
(8.42537 0.00416255 0)
(8.41695 0.00403783 0)
(8.40879 0.00391979 0)
(8.40086 0.00380789 0)
(8.39317 0.00370164 0)
(8.38569 0.00360061 0)
(8.37842 0.00350439 0)
(8.37135 0.00341264 0)
(8.36446 0.00332503 0)
(8.35775 0.00324128 0)
(8.35122 0.00316112 0)
(8.34484 0.00308431 0)
(8.33862 0.00301063 0)
(8.33256 0.00293989 0)
(8.32663 0.0028719 0)
(8.32085 0.00280648 0)
(8.3152 0.00274349 0)
(8.30967 0.00268279 0)
(8.30427 0.00262423 0)
(8.29899 0.00256771 0)
(8.29382 0.0025131 0)
(8.28876 0.0024603 0)
(8.28381 0.00240922 0)
(8.27897 0.00235977 0)
(8.27422 0.00231185 0)
(8.26957 0.0022654 0)
(8.26502 0.00222034 0)
(8.26055 0.0021766 0)
(8.25618 0.00213412 0)
(8.25189 0.00209284 0)
(8.24768 0.00205269 0)
(8.24356 0.00201364 0)
(8.23951 0.00197563 0)
(8.23554 0.00193861 0)
(8.23165 0.00190254 0)
(8.22783 0.00186738 0)
(8.22408 0.00183309 0)
(8.2204 0.00179963 0)
(8.21678 0.00176697 0)
(8.21324 0.00173507 0)
(8.20975 0.00170391 0)
(8.20633 0.00167345 0)
(8.20297 0.00164368 0)
(8.19967 0.00161455 0)
(8.19643 0.00158604 0)
(8.19325 0.00155814 0)
(8.19012 0.00153082 0)
(8.18705 0.00150405 0)
(8.18403 0.00147782 0)
(8.18107 0.00145211 0)
(8.17816 0.0014269 0)
(8.17529 0.00140216 0)
(8.17248 0.0013779 0)
(8.16972 0.00135407 0)
(8.167 0.00133069 0)
(8.16433 0.00130771 0)
(8.16171 0.00128515 0)
(8.15913 0.00126297 0)
(8.1566 0.00124117 0)
(8.15411 0.00121973 0)
(8.15167 0.00119864 0)
(8.14926 0.0011779 0)
(8.1469 0.00115749 0)
(8.14458 0.00113739 0)
(8.1423 0.00111761 0)
(8.14006 0.00109813 0)
(8.13786 0.00107894 0)
(8.1357 0.00106003 0)
(8.13358 0.00104139 0)
(8.13149 0.00102302 0)
(8.12944 0.0010049 0)
(8.12743 0.000987041 0)
(8.12545 0.00096942 0)
(8.12351 0.000952034 0)
(8.1216 0.000934877 0)
(8.11973 0.000917943 0)
(8.11789 0.000901224 0)
(8.11608 0.000884716 0)
(8.11431 0.000868412 0)
(8.11257 0.000852306 0)
(8.11087 0.000836394 0)
(8.10919 0.00082067 0)
(8.10755 0.000805129 0)
(8.10594 0.000789766 0)
(8.10435 0.000774577 0)
(8.1028 0.000759557 0)
(8.10128 0.000744702 0)
(8.09979 0.000730007 0)
(8.09833 0.00071547 0)
(8.0969 0.000701086 0)
(8.0955 0.000686851 0)
(8.09412 0.000672761 0)
(8.09278 0.000658814 0)
(8.09146 0.000645006 0)
(8.09017 0.000631334 0)
(8.0889 0.000617795 0)
(8.08767 0.000604386 0)
(8.08646 0.000591105 0)
(8.08528 0.000577947 0)
(8.08412 0.000564912 0)
(8.08299 0.000551996 0)
(8.08189 0.000539198 0)
(8.08081 0.000526514 0)
(8.07975 0.000513944 0)
(8.07873 0.000501483 0)
(8.07772 0.000489132 0)
(8.07675 0.000476888 0)
(8.07579 0.000464748 0)
(8.07486 0.000452712 0)
(8.07396 0.000440778 0)
(8.07308 0.000428944 0)
(8.07222 0.000417209 0)
(8.07139 0.000405571 0)
(8.07058 0.000394029 0)
(8.06979 0.000382583 0)
(8.06903 0.00037123 0)
(8.06828 0.000359969 0)
(8.06757 0.0003488 0)
(8.06687 0.000337722 0)
(8.0662 0.000326734 0)
(8.06554 0.000315835 0)
(8.06491 0.000305023 0)
(8.0643 0.000294299 0)
(8.06372 0.000283662 0)
(8.06315 0.000273111 0)
(8.06261 0.000262646 0)
(8.06208 0.000252266 0)
(8.06158 0.000241971 0)
(8.0611 0.000231759 0)
(8.06063 0.000221632 0)
(8.06019 0.000211588 0)
(8.05977 0.000201628 0)
(8.05937 0.00019175 0)
(8.05899 0.000181955 0)
(8.05862 0.000172243 0)
(8.05828 0.000162613 0)
(8.05796 0.000153066 0)
(8.05765 0.000143601 0)
(8.05737 0.000134218 0)
(8.0571 0.000124917 0)
(8.05685 0.000115698 0)
(8.05662 0.000106561 0)
(8.05641 9.75068e-05 0)
(8.05622 8.85344e-05 0)
(8.05604 7.96444e-05 0)
(8.05589 7.08366e-05 0)
(8.05575 6.21111e-05 0)
(8.05562 5.34682e-05 0)
(8.05552 4.49077e-05 0)
(8.05543 3.643e-05 0)
(8.05536 2.8035e-05 0)
(8.0553 1.97228e-05 0)
(8.05527 1.14937e-05 0)
(8.05525 3.34757e-06 0)
(8.05524 -4.71532e-06 0)
(8.05525 -1.26949e-05 0)
(8.05528 -2.05911e-05 0)
(8.05532 -2.84039e-05 0)
(8.05538 -3.6133e-05 0)
(8.05545 -4.37785e-05 0)
(8.05554 -5.13403e-05 0)
(8.05565 -5.88183e-05 0)
(8.05577 -6.62125e-05 0)
(8.0559 -7.35228e-05 0)
(8.05605 -8.07492e-05 0)
(8.05621 -8.78918e-05 0)
(8.05639 -9.49505e-05 0)
(8.05658 -0.000101925 1.83652e-105)
(8.05679 -0.000108816 -1.83642e-105)
(8.057 -0.000115624 0)
(8.05724 -0.000122347 0)
(8.05748 -0.000128988 0)
(8.05774 -0.000135544 0)
(8.05802 -0.000142018 0)
(8.0583 -0.000148408 0)
(8.0586 -0.000154715 0)
(8.05891 -0.00016094 0)
(8.05923 -0.000167082 0)
(8.05957 -0.000173142 0)
(8.05991 -0.000179119 0)
(8.06027 -0.000185015 0)
(8.06065 -0.00019083 0)
(8.06103 -0.000196563 0)
(8.06142 -0.000202215 0)
(8.06183 -0.000207787 0)
(8.06224 -0.000213279 0)
(8.06267 -0.000218691 0)
(8.06311 -0.000224024 0)
(8.06356 -0.000229278 0)
(8.06402 -0.000234453 0)
(8.06449 -0.000239551 0)
(8.06497 -0.000244571 0)
(8.06546 -0.000249514 0)
(8.06596 -0.000254381 0)
(8.06647 -0.000259171 0)
(8.06699 -0.000263886 0)
(8.06751 -0.000268527 0)
(8.06805 -0.000273092 0)
(8.0686 -0.000277584 0)
(8.06915 -0.000282003 0)
(8.06972 -0.000286349 0)
(8.07029 -0.000290624 0)
(8.07087 -0.000294826 0)
(8.07146 -0.000298958 0)
(8.07206 -0.00030302 0)
(8.07267 -0.000307012 0)
(8.07328 -0.000310935 0)
(8.0739 -0.00031479 0)
(8.07453 -0.000318577 0)
(8.07517 -0.000322297 0)
(8.07581 -0.00032595 0)
(8.07647 -0.000329538 0)
(8.07713 -0.00033306 0)
(8.07779 -0.000336518 0)
(8.07846 -0.000339912 0)
(8.07914 -0.000343243 0)
(8.07983 -0.000346511 0)
(8.08052 -0.000349717 0)
(8.08122 -0.000352862 0)
(8.08193 -0.000355946 0)
(8.08264 -0.00035897 0)
(8.08336 -0.000361935 0)
(8.08408 -0.00036484 0)
(8.08481 -0.000367688 0)
(8.08555 -0.000370478 0)
(8.08629 -0.000373211 0)
(8.08703 -0.000375887 0)
(8.08778 -0.000378507 0)
(8.08854 -0.000381073 0)
(8.0893 -0.000383584 0)
(8.09007 -0.00038604 0)
(8.09084 -0.000388443 0)
(8.09162 -0.000390794 0)
(8.0924 -0.000393092 0)
(8.09318 -0.000395338 0)
(8.09397 -0.000397533 0)
(8.09477 -0.000399677 0)
(8.09557 -0.000401771 0)
(8.09637 -0.000403815 0)
(8.09717 -0.000405811 0)
(8.09799 -0.000407757 0)
(8.0988 -0.000409656 0)
(8.09962 -0.000411507 0)
(8.10044 -0.000413312 0)
(8.10127 -0.000415069 0)
(8.1021 -0.000416781 0)
(8.10293 -0.000418447 0)
(8.10376 -0.000420068 0)
(8.1046 -0.000421645 0)
(8.10545 -0.000423177 0)
(8.10629 -0.000424666 0)
(8.10714 -0.000426112 0)
(8.10799 -0.000427515 0)
(8.10884 -0.000428876 0)
(8.1097 -0.000430195 0)
(8.11056 -0.000431473 0)
(8.11142 -0.00043271 0)
(8.11229 -0.000433907 0)
(8.11315 -0.000435063 0)
(8.11402 -0.000436181 0)
(8.11489 -0.000437259 0)
(8.11577 -0.000438298 0)
(8.11664 -0.000439299 0)
(8.11752 -0.000440263 0)
(8.1184 -0.000441189 0)
(8.11928 -0.000442078 0)
(8.12016 -0.000442931 0)
(8.12105 -0.000443747 0)
(8.12193 -0.000444528 0)
(8.12282 -0.000445274 0)
(8.12371 -0.000445984 0)
(8.1246 -0.000446661 0)
(8.12549 -0.000447303 0)
(8.12638 -0.000447911 0)
(8.12728 -0.000448487 0)
(8.12817 -0.000449029 0)
(8.12907 -0.000449539 0)
(8.12997 -0.000450018 0)
(8.13087 -0.000450464 0)
(8.13177 -0.000450879 0)
(8.13267 -0.000451264 0)
(8.13357 -0.000451617 0)
(8.13447 -0.000451941 0)
(8.13537 -0.000452235 0)
(8.13627 -0.0004525 0)
(8.13718 -0.000452736 0)
(8.13808 -0.000452943 0)
(8.13898 -0.000453122 0)
(8.13989 -0.000453273 0)
(8.14079 -0.000453397 0)
(8.1417 -0.000453494 0)
(8.1426 -0.000453563 0)
(8.14351 -0.000453607 0)
(8.14442 -0.000453624 0)
(8.14532 -0.000453616 0)
(8.14623 -0.000453582 0)
(8.14713 -0.000453523 0)
(8.14804 -0.00045344 0)
(8.14894 -0.000453332 0)
(8.14985 -0.0004532 0)
(8.15075 -0.000453044 0)
(8.15165 -0.000452865 0)
(8.15256 -0.000452662 0)
(8.15346 -0.000452437 0)
(8.15437 -0.000452189 0)
(8.15527 -0.000451919 0)
(8.15617 -0.000451627 0)
(8.15707 -0.000451313 0)
(8.15797 -0.000450977 0)
(8.15887 -0.00045062 0)
(8.15977 -0.000450242 0)
(8.16067 -0.000449843 0)
(8.16157 -0.000449423 0)
(8.16246 -0.000448983 0)
(8.16336 -0.000448522 0)
(8.16425 -0.000448042 0)
(8.16515 -0.000447541 0)
(8.16604 -0.000447021 0)
(8.16693 -0.000446481 0)
(8.16782 -0.000445921 0)
(8.16871 -0.000445342 0)
(8.1696 -0.000444744 0)
(8.17049 -0.000444126 0)
(8.17138 -0.000443489 0)
(8.17226 -0.000442833 0)
(8.17315 -0.000442157 0)
(8.17403 -0.000441463 0)
(8.17491 -0.000440749 0)
(8.17579 -0.000440015 0)
(8.17667 -0.000439263 0)
(8.17754 -0.000438491 0)
(8.17842 -0.000437699 0)
(8.17929 -0.000436888 0)
(8.18016 -0.000436057 0)
(8.18103 -0.000435206 0)
(8.1819 -0.000434334 0)
(8.18277 -0.000433442 0)
(8.18363 -0.000432529 0)
(8.18449 -0.000431595 0)
(8.18536 -0.000430639 0)
(8.18622 -0.000429661 0)
(8.18707 -0.000428661 0)
(8.18793 -0.000427637 0)
(8.18878 -0.00042659 0)
(8.18963 -0.000425519 0)
(8.19048 -0.000424422 0)
(8.19133 -0.0004233 0)
(8.19217 -0.000422152 0)
(8.19301 -0.000420975 0)
(8.19385 -0.00041977 0)
(8.19469 -0.000418536 0)
(8.19553 -0.00041727 0)
(8.19636 -0.000415971 0)
(8.19719 -0.000414639 0)
(8.19801 -0.000413271 0)
(8.19884 -0.000411865 0)
(8.19966 -0.000410419 0)
(8.20048 -0.000408931 0)
(8.20129 -0.000407399 0)
(8.20211 -0.000405818 0)
(8.20292 -0.000404187 0)
(8.20372 -0.000402499 0)
(8.20453 -0.000400758 0)
(8.20532 -0.000398922 0)
(8.20612 -0.000397145 0)
(8.20692 -0.000394704 0)
(8.20765 -0.000394892 0)
(8.20871 -0.000382585 0)
(9.89636 0.592428 0)
(9.64868 0.329307 0)
(9.44654 0.219668 0)
(9.30553 0.153639 0)
(9.19287 0.111411 0)
(9.10032 0.0866488 0)
(9.02652 0.0711 0)
(8.96656 0.0601992 0)
(8.916 0.0522241 0)
(8.87242 0.0462128 0)
(8.83435 0.0414984 0)
(8.80061 0.0376823 0)
(8.77034 0.0345268 0)
(8.74289 0.0318715 0)
(8.71781 0.0296029 0)
(8.69472 0.0276403 0)
(8.67335 0.0259245 0)
(8.65344 0.0244108 0)
(8.63483 0.0230647 0)
(8.61736 0.0218594 0)
(8.60089 0.0207733 0)
(8.58532 0.0197892 0)
(8.57056 0.0188931 0)
(8.55653 0.0180735 0)
(8.54317 0.0173206 0)
(8.53041 0.0166265 0)
(8.5182 0.0159843 0)
(8.50651 0.0153883 0)
(8.49529 0.0148335 0)
(8.4845 0.0143157 0)
(8.47412 0.0138311 0)
(8.46412 0.0133765 0)
(8.45446 0.0129492 0)
(8.44514 0.0125466 0)
(8.43613 0.0121666 0)
(8.4274 0.0118073 0)
(8.41895 0.0114669 0)
(8.41076 0.0111439 0)
(8.40282 0.010837 0)
(8.3951 0.0105449 0)
(8.38761 0.0102665 0)
(8.38032 0.0100008 0)
(8.37323 0.00974689 0)
(8.36633 0.00950402 0)
(8.35961 0.00927139 0)
(8.35307 0.00904835 0)
(8.34669 0.00883426 0)
(8.34046 0.00862857 0)
(8.33439 0.00843075 0)
(8.32846 0.00824033 0)
(8.32268 0.00805686 0)
(8.31702 0.00787995 0)
(8.3115 0.00770921 0)
(8.3061 0.00754431 0)
(8.30082 0.00738491 0)
(8.29566 0.00723073 0)
(8.2906 0.0070815 0)
(8.28566 0.00693694 0)
(8.28082 0.00679682 0)
(8.27608 0.00666092 0)
(8.27144 0.00652904 0)
(8.26689 0.00640096 0)
(8.26244 0.00627652 0)
(8.25807 0.00615554 0)
(8.25379 0.00603786 0)
(8.2496 0.00592334 0)
(8.24548 0.00581182 0)
(8.24145 0.00570317 0)
(8.23749 0.00559728 0)
(8.23361 0.00549401 0)
(8.2298 0.00539327 0)
(8.22607 0.00529494 0)
(8.2224 0.00519892 0)
(8.2188 0.00510512 0)
(8.21527 0.00501345 0)
(8.2118 0.00492383 0)
(8.2084 0.00483618 0)
(8.20505 0.00475041 0)
(8.20177 0.00466646 0)
(8.19855 0.00458426 0)
(8.19538 0.00450374 0)
(8.19227 0.00442484 0)
(8.18922 0.0043475 0)
(8.18622 0.00427167 0)
(8.18327 0.00419729 0)
(8.18038 0.0041243 0)
(8.17754 0.00405267 0)
(8.17474 0.00398234 0)
(8.172 0.00391327 0)
(8.1693 0.00384542 0)
(8.16666 0.00377874 0)
(8.16405 0.00371319 0)
(8.1615 0.00364875 0)
(8.15899 0.00358536 0)
(8.15652 0.00352301 0)
(8.15409 0.00346165 0)
(8.15171 0.00340125 0)
(8.14937 0.00334179 0)
(8.14707 0.00328323 0)
(8.14482 0.00322555 0)
(8.1426 0.00316872 0)
(8.14042 0.00311271 0)
(8.13828 0.0030575 0)
(8.13618 0.00300307 0)
(8.13412 0.00294938 0)
(8.13209 0.00289643 0)
(8.1301 0.00284419 0)
(8.12814 0.00279264 0)
(8.12623 0.00274175 0)
(8.12434 0.00269152 0)
(8.12249 0.00264192 0)
(8.12068 0.00259293 0)
(8.1189 0.00254454 0)
(8.11715 0.00249673 0)
(8.11543 0.00244949 0)
(8.11375 0.0024028 0)
(8.1121 0.00235665 0)
(8.11048 0.00231102 0)
(8.1089 0.0022659 0)
(8.10734 0.00222127 0)
(8.10581 0.00217713 0)
(8.10432 0.00213346 0)
(8.10285 0.00209026 0)
(8.10142 0.0020475 0)
(8.10001 0.00200518 0)
(8.09863 0.00196329 0)
(8.09728 0.00192182 0)
(8.09596 0.00188076 0)
(8.09467 0.0018401 0)
(8.09341 0.00179983 0)
(8.09217 0.00175994 0)
(8.09096 0.00172043 0)
(8.08978 0.00168129 0)
(8.08862 0.00164251 0)
(8.08749 0.00160408 0)
(8.08639 0.001566 0)
(8.08531 0.00152825 0)
(8.08426 0.00149085 0)
(8.08323 0.00145377 0)
(8.08223 0.00141701 0)
(8.08126 0.00138057 0)
(8.0803 0.00134445 0)
(8.07938 0.00130863 0)
(8.07848 0.00127311 0)
(8.0776 0.00123789 0)
(8.07674 0.00120297 0)
(8.07591 0.00116834 0)
(8.07511 0.00113399 0)
(8.07432 0.00109993 0)
(8.07356 0.00106615 0)
(8.07283 0.00103265 0)
(8.07211 0.000999421 0)
(8.07142 0.000966464 0)
(8.07075 0.000933777 0)
(8.0701 0.000901357 0)
(8.06948 0.000869202 0)
(8.06887 0.00083731 0)
(8.06829 0.000805679 0)
(8.06773 0.000774309 0)
(8.06719 0.000743196 0)
(8.06667 0.00071234 0)
(8.06618 0.00068174 0)
(8.0657 0.000651395 0)
(8.06524 0.000621303 0)
(8.06481 0.000591464 0)
(8.06439 0.000561877 0)
(8.064 0.000532542 0)
(8.06362 0.000503457 0)
(8.06327 0.000474622 0)
(8.06293 0.000446038 0)
(8.06261 0.000417704 0)
(8.06232 0.000389619 0)
(8.06204 0.000361783 0)
(8.06178 0.000334197 0)
(8.06154 0.00030686 0)
(8.06131 0.000279773 0)
(8.06111 0.000252935 0)
(8.06092 0.000226347 0)
(8.06075 0.000200008 0)
(8.0606 0.00017392 0)
(8.06047 0.000148082 0)
(8.06035 0.000122494 0)
(8.06026 9.71574e-05 0)
(8.06017 7.20715e-05 0)
(8.06011 4.72369e-05 0)
(8.06006 2.26538e-05 0)
(8.06003 -1.6774e-06 0)
(8.06002 -2.57565e-05 0)
(8.06002 -4.95833e-05 0)
(8.06004 -7.31575e-05 0)
(8.06007 -9.64788e-05 0)
(8.06012 -0.000119547 0)
(8.06018 -0.000142362 0)
(8.06026 -0.000164924 0)
(8.06036 -0.000187233 0)
(8.06047 -0.000209288 0)
(8.06059 -0.000231089 0)
(8.06073 -0.000252637 0)
(8.06089 -0.000273932 0)
(8.06106 -0.000294973 0)
(8.06124 -0.000315762 0)
(8.06144 -0.000336297 0)
(8.06165 -0.00035658 0)
(8.06187 -0.000376611 0)
(8.06211 -0.000396389 0)
(8.06236 -0.000415917 0)
(8.06263 -0.000435193 0)
(8.0629 -0.000454219 0)
(8.06319 -0.000472995 0)
(8.0635 -0.000491522 0)
(8.06381 -0.000509801 0)
(8.06414 -0.000527832 0)
(8.06448 -0.000545616 0)
(8.06483 -0.000563155 0)
(8.06519 -0.000580448 0)
(8.06557 -0.000597498 0)
(8.06595 -0.000614306 0)
(8.06635 -0.000630871 0)
(8.06676 -0.000647197 0)
(8.06718 -0.000663283 0)
(8.06761 -0.000679131 0)
(8.06805 -0.000694743 0)
(8.0685 -0.00071012 0)
(8.06897 -0.000725264 0)
(8.06944 -0.000740175 0)
(8.06992 -0.000754855 0)
(8.07041 -0.000769307 0)
(8.07091 -0.000783531 0)
(8.07143 -0.000797529 0)
(8.07195 -0.000811303 0)
(8.07248 -0.000824855 0)
(8.07301 -0.000838186 0)
(8.07356 -0.000851298 0)
(8.07412 -0.000864194 0)
(8.07469 -0.000876873 0)
(8.07526 -0.00088934 0)
(8.07584 -0.000901595 0)
(8.07643 -0.00091364 0)
(8.07703 -0.000925477 0)
(8.07764 -0.000937108 0)
(8.07825 -0.000948536 0)
(8.07887 -0.000959761 0)
(8.0795 -0.000970786 0)
(8.08014 -0.000981613 0)
(8.08079 -0.000992243 0)
(8.08144 -0.00100268 0)
(8.0821 -0.00101292 0)
(8.08276 -0.00102298 0)
(8.08343 -0.00103284 0)
(8.08411 -0.00104252 0)
(8.0848 -0.00105201 0)
(8.08549 -0.00106132 0)
(8.08619 -0.00107045 0)
(8.08689 -0.0010794 0)
(8.0876 -0.00108817 0)
(8.08832 -0.00109677 0)
(8.08904 -0.00110519 0)
(8.08977 -0.00111344 0)
(8.0905 -0.00112153 0)
(8.09124 -0.00112944 0)
(8.09198 -0.00113719 0)
(8.09273 -0.00114477 0)
(8.09348 -0.00115219 0)
(8.09424 -0.00115945 0)
(8.09501 -0.00116655 0)
(8.09577 -0.00117349 0)
(8.09655 -0.00118028 0)
(8.09732 -0.00118691 0)
(8.09811 -0.00119339 0)
(8.09889 -0.00119972 0)
(8.09968 -0.0012059 0)
(8.10048 -0.00121193 0)
(8.10128 -0.00121782 0)
(8.10208 -0.00122356 0)
(8.10289 -0.00122915 0)
(8.1037 -0.00123461 0)
(8.10451 -0.00123993 0)
(8.10533 -0.0012451 0)
(8.10615 -0.00125014 0)
(8.10698 -0.00125505 0)
(8.10781 -0.00125982 0)
(8.10864 -0.00126446 0)
(8.10947 -0.00126896 0)
(8.11031 -0.00127334 0)
(8.11115 -0.00127759 0)
(8.11199 -0.00128171 0)
(8.11284 -0.00128571 0)
(8.11369 -0.00128958 0)
(8.11454 -0.00129333 0)
(8.11539 -0.00129695 0)
(8.11625 -0.00130046 0)
(8.11711 -0.00130385 0)
(8.11797 -0.00130712 0)
(8.11883 -0.00131027 0)
(8.1197 -0.00131331 0)
(8.12056 -0.00131624 0)
(8.12143 -0.00131905 0)
(8.1223 -0.00132175 0)
(8.12318 -0.00132434 0)
(8.12405 -0.00132683 0)
(8.12493 -0.0013292 0)
(8.12581 -0.00133147 0)
(8.12669 -0.00133364 0)
(8.12757 -0.0013357 0)
(8.12845 -0.00133766 0)
(8.12933 -0.00133951 0)
(8.13022 -0.00134127 0)
(8.13111 -0.00134293 0)
(8.13199 -0.00134449 0)
(8.13288 -0.00134596 0)
(8.13377 -0.00134733 0)
(8.13466 -0.0013486 0)
(8.13555 -0.00134979 0)
(8.13644 -0.00135088 0)
(8.13734 -0.00135188 0)
(8.13823 -0.00135279 0)
(8.13912 -0.00135361 0)
(8.14002 -0.00135435 0)
(8.14091 -0.001355 0)
(8.14181 -0.00135556 0)
(8.14271 -0.00135604 0)
(8.1436 -0.00135644 0)
(8.1445 -0.00135676 0)
(8.1454 -0.001357 0)
(8.14629 -0.00135715 0)
(8.14719 -0.00135723 0)
(8.14809 -0.00135724 0)
(8.14899 -0.00135716 0)
(8.14988 -0.00135701 0)
(8.15078 -0.00135679 0)
(8.15168 -0.00135649 0)
(8.15257 -0.00135612 0)
(8.15347 -0.00135568 0)
(8.15437 -0.00135517 0)
(8.15526 -0.00135458 0)
(8.15616 -0.00135393 0)
(8.15706 -0.00135322 0)
(8.15795 -0.00135243 0)
(8.15884 -0.00135158 0)
(8.15974 -0.00135066 0)
(8.16063 -0.00134968 0)
(8.16152 -0.00134864 0)
(8.16242 -0.00134753 0)
(8.16331 -0.00134636 0)
(8.1642 -0.00134512 0)
(8.16509 -0.00134383 0)
(8.16598 -0.00134247 0)
(8.16686 -0.00134106 0)
(8.16775 -0.00133958 0)
(8.16864 -0.00133805 0)
(8.16952 -0.00133645 0)
(8.17041 -0.0013348 0)
(8.17129 -0.00133309 0)
(8.17217 -0.00133132 0)
(8.17305 -0.00132949 0)
(8.17393 -0.00132761 0)
(8.17481 -0.00132567 0)
(8.17569 -0.00132367 0)
(8.17656 -0.00132162 0)
(8.17744 -0.0013195 0)
(8.17831 -0.00131733 0)
(8.17918 -0.0013151 0)
(8.18005 -0.00131282 0)
(8.18092 -0.00131047 0)
(8.18179 -0.00130807 0)
(8.18265 -0.00130561 0)
(8.18352 -0.00130309 0)
(8.18438 -0.00130051 0)
(8.18524 -0.00129786 0)
(8.1861 -0.00129516 0)
(8.18696 -0.00129239 0)
(8.18781 -0.00128956 0)
(8.18866 -0.00128666 0)
(8.18952 -0.0012837 0)
(8.19036 -0.00128066 0)
(8.19121 -0.00127756 0)
(8.19206 -0.00127439 0)
(8.1929 -0.00127114 0)
(8.19374 -0.00126781 0)
(8.19458 -0.00126441 0)
(8.19542 -0.00126092 0)
(8.19625 -0.00125735 0)
(8.19708 -0.00125369 0)
(8.19791 -0.00124994 0)
(8.19874 -0.00124609 0)
(8.19957 -0.00124214 0)
(8.20039 -0.00123808 0)
(8.20121 -0.00123392 0)
(8.20202 -0.00122963 0)
(8.20284 -0.00122522 0)
(8.20365 -0.00122068 0)
(8.20446 -0.00121599 0)
(8.20526 -0.00121115 0)
(8.20606 -0.00120615 0)
(8.20686 -0.00120098 0)
(8.20766 -0.00119557 0)
(8.20845 -0.00119012 0)
(8.20924 -0.00118358 0)
(8.20998 -0.00118028 0)
(8.21103 -0.00115905 0)
(9.94546 0.725989 0)
(9.82597 0.524082 0)
(9.67686 0.393795 0)
(9.54203 0.299195 0)
(9.42458 0.23072 0)
(9.32183 0.183518 0)
(9.23371 0.150472 0)
(9.15852 0.126348 0)
(9.09364 0.10829 0)
(9.03704 0.094499 0)
(8.98724 0.0837029 0)
(8.94303 0.0750501 0)
(8.90345 0.0679794 0)
(8.86771 0.0621045 0)
(8.83522 0.0571502 0)
(8.80549 0.0529177 0)
(8.77813 0.0492612 0)
(8.75282 0.0460712 0)
(8.72931 0.0432638 0)
(8.70737 0.0407742 0)
(8.68682 0.0385511 0)
(8.66751 0.0365537 0)
(8.64931 0.0347492 0)
(8.63211 0.0331105 0)
(8.61581 0.0316157 0)
(8.60033 0.0302464 0)
(8.58559 0.0289872 0)
(8.57153 0.027825 0)
(8.5581 0.026749 0)
(8.54525 0.0257497 0)
(8.53293 0.024819 0)
(8.52111 0.0239498 0)
(8.50974 0.0231362 0)
(8.4988 0.0223729 0)
(8.48825 0.0216551 0)
(8.47809 0.0209787 0)
(8.46827 0.0203403 0)
(8.45878 0.0197365 0)
(8.4496 0.0191645 0)
(8.44071 0.0186217 0)
(8.43209 0.0181059 0)
(8.42374 0.017615 0)
(8.41564 0.0171472 0)
(8.40777 0.0167008 0)
(8.40012 0.0162742 0)
(8.39268 0.0158662 0)
(8.38545 0.0154755 0)
(8.37841 0.0151008 0)
(8.37156 0.0147413 0)
(8.36488 0.0143958 0)
(8.35837 0.0140637 0)
(8.35202 0.0137439 0)
(8.34583 0.0134359 0)
(8.33978 0.013139 0)
(8.33388 0.0128524 0)
(8.32812 0.0125757 0)
(8.32249 0.0123082 0)
(8.31698 0.0120495 0)
(8.3116 0.0117992 0)
(8.30634 0.0115567 0)
(8.3012 0.0113217 0)
(8.29616 0.0110938 0)
(8.29123 0.0108726 0)
(8.28641 0.0106579 0)
(8.28169 0.0104492 0)
(8.27706 0.0102464 0)
(8.27253 0.0100492 0)
(8.26809 0.00985723 0)
(8.26374 0.00967034 0)
(8.25948 0.00948829 0)
(8.2553 0.00931086 0)
(8.2512 0.00913785 0)
(8.24718 0.00896908 0)
(8.24324 0.00880437 0)
(8.23938 0.00864355 0)
(8.23559 0.00848646 0)
(8.23187 0.00833295 0)
(8.22822 0.00818287 0)
(8.22464 0.0080361 0)
(8.22112 0.0078925 0)
(8.21767 0.00775195 0)
(8.21429 0.00761434 0)
(8.21096 0.00747955 0)
(8.2077 0.00734749 0)
(8.20449 0.00721804 0)
(8.20135 0.00709112 0)
(8.19826 0.00696664 0)
(8.19522 0.0068445 0)
(8.19225 0.00672463 0)
(8.18932 0.00660695 0)
(8.18645 0.00649138 0)
(8.18363 0.00637784 0)
(8.18085 0.00626628 0)
(8.17813 0.00615663 0)
(8.17546 0.00604881 0)
(8.17283 0.00594278 0)
(8.17026 0.00583847 0)
(8.16772 0.00573583 0)
(8.16524 0.00563481 0)
(8.16279 0.00553535 0)
(8.16039 0.0054374 0)
(8.15804 0.00534093 0)
(8.15572 0.00524588 0)
(8.15345 0.00515221 0)
(8.15122 0.00505988 0)
(8.14903 0.00496885 0)
(8.14687 0.00487908 0)
(8.14476 0.00479053 0)
(8.14269 0.00470317 0)
(8.14065 0.00461697 0)
(8.13865 0.00453189 0)
(8.13669 0.00444789 0)
(8.13477 0.00436496 0)
(8.13288 0.00428306 0)
(8.13102 0.00420216 0)
(8.1292 0.00412223 0)
(8.12742 0.00404325 0)
(8.12567 0.0039652 0)
(8.12395 0.00388805 0)
(8.12227 0.00381177 0)
(8.12061 0.00373635 0)
(8.119 0.00366177 0)
(8.11741 0.00358799 0)
(8.11585 0.00351501 0)
(8.11433 0.0034428 0)
(8.11284 0.00337134 0)
(8.11137 0.00330063 0)
(8.10994 0.00323063 0)
(8.10854 0.00316134 0)
(8.10716 0.00309273 0)
(8.10582 0.0030248 0)
(8.10451 0.00295753 0)
(8.10322 0.0028909 0)
(8.10196 0.00282491 0)
(8.10073 0.00275954 0)
(8.09953 0.00269477 0)
(8.09835 0.0026306 0)
(8.09721 0.00256701 0)
(8.09608 0.002504 0)
(8.09499 0.00244155 0)
(8.09392 0.00237966 0)
(8.09288 0.00231831 0)
(8.09187 0.0022575 0)
(8.09087 0.00219721 0)
(8.08991 0.00213745 0)
(8.08897 0.0020782 0)
(8.08806 0.00201945 0)
(8.08717 0.00196121 0)
(8.0863 0.00190346 0)
(8.08546 0.00184619 0)
(8.08464 0.00178941 0)
(8.08385 0.0017331 0)
(8.08308 0.00167727 0)
(8.08233 0.0016219 0)
(8.08161 0.00156699 0)
(8.08091 0.00151255 0)
(8.08023 0.00145856 0)
(8.07958 0.00140501 0)
(8.07895 0.00135192 0)
(8.07834 0.00129928 0)
(8.07775 0.00124707 0)
(8.07718 0.00119531 0)
(8.07664 0.00114398 0)
(8.07611 0.0010931 0)
(8.07561 0.00104264 0)
(8.07513 0.00099262 0)
(8.07467 0.000943031 0)
(8.07423 0.000893873 0)
(8.07381 0.000845144 0)
(8.07341 0.000796843 0)
(8.07303 0.00074897 0)
(8.07268 0.000701525 0)
(8.07234 0.000654507 0)
(8.07202 0.000607915 0)
(8.07172 0.000561749 0)
(8.07144 0.000516009 0)
(8.07117 0.000470695 0)
(8.07093 0.000425807 0)
(8.07071 0.000381345 0)
(8.0705 0.000337309 0)
(8.07031 0.0002937 0)
(8.07014 0.000250517 0)
(8.06999 0.000207761 0)
(8.06985 0.000165431 0)
(8.06974 0.000123529 0)
(8.06964 8.2055e-05 0)
(8.06956 4.10086e-05 0)
(8.06949 3.90185e-07 0)
(8.06944 -3.97998e-05 0)
(8.06941 -7.95612e-05 0)
(8.06939 -0.000118894 0)
(8.06939 -0.000157797 0)
(8.06941 -0.000196272 0)
(8.06944 -0.000234317 0)
(8.06949 -0.000271933 0)
(8.06956 -0.000309119 0)
(8.06964 -0.000345877 0)
(8.06973 -0.000382206 0)
(8.06984 -0.000418106 0)
(8.06996 -0.000453577 2.85479e-103)
(8.0701 -0.000488621 -2.85467e-103)
(8.07026 -0.000523237 0)
(8.07042 -0.000557426 0)
(8.0706 -0.000591189 0)
(8.0708 -0.000624526 0)
(8.07101 -0.000657439 0)
(8.07123 -0.000689928 0)
(8.07147 -0.000721995 0)
(8.07172 -0.000753639 0)
(8.07198 -0.000784864 0)
(8.07225 -0.000815669 0)
(8.07254 -0.000846057 0)
(8.07284 -0.000876029 0)
(8.07316 -0.000905586 0)
(8.07348 -0.000934731 0)
(8.07382 -0.000963465 0)
(8.07417 -0.000991789 0)
(8.07453 -0.00101971 0)
(8.0749 -0.00104722 0)
(8.07528 -0.00107433 0)
(8.07568 -0.00110104 0)
(8.07608 -0.00112735 0)
(8.0765 -0.00115326 0)
(8.07692 -0.00117879 0)
(8.07736 -0.00120392 0)
(8.07781 -0.00122866 0)
(8.07827 -0.00125302 0)
(8.07873 -0.00127699 0)
(8.07921 -0.00130058 0)
(8.0797 -0.0013238 0)
(8.0802 -0.00134665 0)
(8.0807 -0.00136912 0)
(8.08122 -0.00139122 0)
(8.08174 -0.00141296 0)
(8.08228 -0.00143434 0)
(8.08282 -0.00145535 0)
(8.08337 -0.00147601 0)
(8.08393 -0.00149632 0)
(8.0845 -0.00151628 0)
(8.08507 -0.0015359 0)
(8.08566 -0.00155517 0)
(8.08625 -0.0015741 0)
(8.08685 -0.00159269 0)
(8.08746 -0.00161095 0)
(8.08807 -0.00162888 0)
(8.08869 -0.00164649 0)
(8.08932 -0.00166377 0)
(8.08996 -0.00168073 0)
(8.0906 -0.00169737 0)
(8.09125 -0.0017137 0)
(8.09191 -0.00172972 0)
(8.09258 -0.00174543 0)
(8.09325 -0.00176084 0)
(8.09392 -0.00177594 0)
(8.09461 -0.00179075 0)
(8.09529 -0.00180527 0)
(8.09599 -0.00181949 0)
(8.09669 -0.00183343 0)
(8.0974 -0.00184707 0)
(8.09811 -0.00186044 0)
(8.09883 -0.00187353 0)
(8.09955 -0.00188634 0)
(8.10028 -0.00189888 0)
(8.10101 -0.00191115 0)
(8.10175 -0.00192315 0)
(8.1025 -0.00193488 0)
(8.10324 -0.00194635 0)
(8.104 -0.00195757 0)
(8.10476 -0.00196853 0)
(8.10552 -0.00197923 0)
(8.10629 -0.00198968 0)
(8.10706 -0.00199989 0)
(8.10783 -0.00200985 0)
(8.10861 -0.00201957 0)
(8.1094 -0.00202905 0)
(8.11018 -0.00203829 0)
(8.11097 -0.00204729 0)
(8.11177 -0.00205606 0)
(8.11257 -0.0020646 0)
(8.11337 -0.00207292 0)
(8.11418 -0.00208101 0)
(8.11499 -0.00208888 0)
(8.1158 -0.00209652 0)
(8.11661 -0.00210395 0)
(8.11743 -0.00211116 0)
(8.11826 -0.00211816 0)
(8.11908 -0.00212495 0)
(8.11991 -0.00213153 0)
(8.12074 -0.00213791 0)
(8.12157 -0.00214408 0)
(8.12241 -0.00215005 0)
(8.12324 -0.00215582 0)
(8.12409 -0.00216139 0)
(8.12493 -0.00216677 0)
(8.12577 -0.00217195 0)
(8.12662 -0.00217694 0)
(8.12747 -0.00218175 0)
(8.12832 -0.00218636 0)
(8.12918 -0.0021908 0)
(8.13003 -0.00219505 0)
(8.13089 -0.00219912 0)
(8.13175 -0.00220301 0)
(8.13261 -0.00220673 0)
(8.13347 -0.00221028 0)
(8.13433 -0.00221365 0)
(8.1352 -0.00221685 0)
(8.13606 -0.00221988 0)
(8.13693 -0.00222275 0)
(8.1378 -0.00222546 0)
(8.13867 -0.002228 0)
(8.13954 -0.00223038 0)
(8.14042 -0.00223261 0)
(8.14129 -0.00223468 0)
(8.14216 -0.0022366 0)
(8.14304 -0.00223836 0)
(8.14391 -0.00223998 0)
(8.14479 -0.00224145 0)
(8.14567 -0.00224277 0)
(8.14655 -0.00224394 0)
(8.14743 -0.00224498 0)
(8.1483 -0.00224587 0)
(8.14918 -0.00224663 0)
(8.15006 -0.00224725 0)
(8.15094 -0.00224773 0)
(8.15183 -0.00224808 0)
(8.15271 -0.0022483 0)
(8.15359 -0.00224839 0)
(8.15447 -0.00224835 0)
(8.15535 -0.00224819 0)
(8.15623 -0.0022479 0)
(8.15711 -0.00224749 0)
(8.15799 -0.00224696 0)
(8.15887 -0.0022463 0)
(8.15975 -0.00224553 0)
(8.16064 -0.00224465 0)
(8.16152 -0.00224364 0)
(8.1624 -0.00224253 0)
(8.16328 -0.0022413 0)
(8.16415 -0.00223996 0)
(8.16503 -0.00223851 0)
(8.16591 -0.00223695 0)
(8.16679 -0.00223529 0)
(8.16767 -0.00223352 0)
(8.16854 -0.00223165 0)
(8.16942 -0.00222967 0)
(8.17029 -0.00222759 0)
(8.17117 -0.0022254 0)
(8.17204 -0.00222312 0)
(8.17291 -0.00222074 0)
(8.17379 -0.00221825 0)
(8.17466 -0.00221567 0)
(8.17553 -0.002213 0)
(8.1764 -0.00221022 0)
(8.17726 -0.00220735 0)
(8.17813 -0.00220438 0)
(8.179 -0.00220132 0)
(8.17986 -0.00219816 0)
(8.18072 -0.0021949 0)
(8.18159 -0.00219155 0)
(8.18245 -0.00218811 0)
(8.18331 -0.00218457 0)
(8.18417 -0.00218093 0)
(8.18502 -0.0021772 0)
(8.18588 -0.00217337 0)
(8.18673 -0.00216944 0)
(8.18758 -0.00216541 0)
(8.18843 -0.00216129 0)
(8.18928 -0.00215706 0)
(8.19013 -0.00215274 0)
(8.19098 -0.00214831 0)
(8.19182 -0.00214378 0)
(8.19267 -0.00213914 0)
(8.19351 -0.00213439 0)
(8.19435 -0.00212953 0)
(8.19518 -0.00212456 0)
(8.19602 -0.00211948 0)
(8.19685 -0.00211427 0)
(8.19768 -0.00210894 0)
(8.19851 -0.00210349 0)
(8.19934 -0.0020979 0)
(8.20016 -0.00209218 0)
(8.20099 -0.00208632 0)
(8.20181 -0.00208032 0)
(8.20263 -0.00207416 0)
(8.20344 -0.00206784 0)
(8.20425 -0.00206136 0)
(8.20507 -0.0020547 0)
(8.20587 -0.00204786 0)
(8.20668 -0.00204082 0)
(8.20748 -0.00203357 0)
(8.20828 -0.00202611 0)
(8.20908 -0.00201841 0)
(8.20987 -0.00201046 0)
(8.21066 -0.00200224 0)
(8.21145 -0.00199373 0)
(8.21224 -0.00198488 0)
(8.21302 -0.00197574 0)
(8.2138 -0.00196581 0)
(8.21453 -0.00195642 0)
(8.21557 -0.00193852 0)
(9.95588 0.782308 0)
(9.89615 0.625112 0)
(9.80208 0.503554 0)
(9.70137 0.409242 0)
(9.60377 0.335326 0)
(9.51099 0.278482 0)
(9.42517 0.23487 0)
(9.34747 0.200926 0)
(9.2775 0.174176 0)
(9.21448 0.152872 0)
(9.15765 0.135684 0)
(9.10627 0.121621 0)
(9.05962 0.109965 0)
(9.0171 0.100188 0)
(8.97816 0.0918946 0)
(8.94235 0.0847867 0)
(8.9093 0.0786376 0)
(8.87865 0.0732729 0)
(8.85015 0.0685562 0)
(8.82354 0.0643802 0)
(8.79863 0.0606593 0)
(8.77524 0.0573246 0)
(8.75322 0.05432 0)
(8.73243 0.0515998 0)
(8.71277 0.0491258 0)
(8.69412 0.0468665 0)
(8.6764 0.0447954 0)
(8.65954 0.0428899 0)
(8.64346 0.0411312 0)
(8.62811 0.0395028 0)
(8.61342 0.0379908 0)
(8.59935 0.0365831 0)
(8.58585 0.0352692 0)
(8.57289 0.03404 0)
(8.56043 0.0328874 0)
(8.54843 0.0318045 0)