/*--------------------------------*- C++ -*----------------------------------*\
| =========                 |                                                 |
| \\      /  F ield         | OpenFOAM: The Open Source CFD Toolbox           |
|  \\    /   O peration     | Version:  2506                                  |
|   \\  /    A nd           | Website:  www.openfoam.com                      |
|    \\/     M anipulation  |                                                 |
\*---------------------------------------------------------------------------*/
FoamFile
{
    version     2.0;
    format      ascii;
    arch        "LSB;label=32;scalar=64";
    class       volScalarField;
    location    "700";
    object      epsilon;
}
// * * * * * * * * * * * * * * * * * * * * * * * * * * * * * * * * * * * * * //

dimensions      [0 2 -3 0 0 0 0];

internalField   nonuniform List<scalar> 
131949
(
0.427376
0.492067
0.494247
0.487068
0.480358
0.474538
0.469357
0.464769
0.46069
0.457007
0.453634
0.450511
0.447589
0.444834
0.442216
0.439715
0.437313
0.434997
0.432757
0.430582
0.428466
0.426402
0.424386
0.422412
0.420477
0.418577
0.416711
0.414875
0.413067
0.411286
0.40953
0.407796
0.406085
0.404394
0.402723
0.401071
0.399437
0.39782
0.396219
0.394634
0.393064
0.391508
0.389967
0.388439
0.386924
0.385423
0.383933
0.382456
0.38099
0.379536
0.378093
0.37666
0.375239
0.373827
0.372426
0.371035
0.369654
0.368282
0.366919
0.365566
0.364222
0.362887
0.36156
0.360242
0.358933
0.357632
0.356339
0.355054
0.353777
0.352508
0.351247
0.349994
0.348748
0.347509
0.346278
0.345055
0.343838
0.342629
0.341426
0.340231
0.339042
0.337861
0.336686
0.335517
0.334356
0.333201
0.332052
0.330909
0.329774
0.328644
0.32752
0.326403
0.325292
0.324187
0.323087
0.321994
0.320907
0.319825
0.31875
0.31768
0.316615
0.315557
0.314503
0.313456
0.312414
0.311377
0.310346
0.30932
0.3083
0.307285
0.306275
0.30527
0.30427
0.303276
0.302286
0.301302
0.300323
0.299348
0.298379
0.297414
0.296455
0.2955
0.29455
0.293604
0.292664
0.291728
0.290797
0.28987
0.288948
0.288031
0.287118
0.28621
0.285306
0.284406
0.283511
0.28262
0.281734
0.280852
0.279974
0.279101
0.278232
0.277367
0.276506
0.275649
0.274797
0.273948
0.273104
0.272264
0.271427
0.270595
0.269767
0.268942
0.268122
0.267305
0.266493
0.265684
0.264879
0.264077
0.26328
0.262486
0.261696
0.26091
0.260128
0.259349
0.258573
0.257802
0.257034
0.256269
0.255508
0.254751
0.253997
0.253247
0.2525
0.251756
0.251016
0.25028
0.249546
0.248816
0.24809
0.247367
0.246647
0.24593
0.245217
0.244507
0.2438
0.243096
0.242396
0.241699
0.241004
0.240313
0.239626
0.238941
0.238259
0.237581
0.236905
0.236232
0.235563
0.234896
0.234233
0.233572
0.232915
0.23226
0.231608
0.230959
0.230313
0.22967
0.22903
0.228392
0.227758
0.227126
0.226497
0.22587
0.225247
0.224626
0.224008
0.223392
0.22278
0.222169
0.221562
0.220957
0.220355
0.219756
0.219159
0.218564
0.217972
0.217383
0.216796
0.216212
0.21563
0.215051
0.214475
0.2139
0.213328
0.212759
0.212192
0.211628
0.211065
0.210506
0.209948
0.209393
0.208841
0.20829
0.207742
0.207196
0.206653
0.206112
0.205573
0.205036
0.204502
0.20397
0.20344
0.202912
0.202386
0.201863
0.201341
0.200822
0.200305
0.199791
0.199278
0.198767
0.198259
0.197752
0.197248
0.196746
0.196245
0.195747
0.195251
0.194757
0.194264
0.193774
0.193286
0.1928
0.192315
0.191833
0.191353
0.190874
0.190397
0.189923
0.18945
0.188979
0.18851
0.188043
0.187578
0.187114
0.186652
0.186193
0.185734
0.185278
0.184824
0.184371
0.18392
0.183471
0.183024
0.182578
0.182134
0.181692
0.181252
0.180813
0.180376
0.17994
0.179507
0.179075
0.178644
0.178216
0.177789
0.177363
0.176939
0.176517
0.176096
0.175677
0.17526
0.174844
0.17443
0.174017
0.173606
0.173196
0.172788
0.172382
0.171977
0.171573
0.171171
0.170771
0.170372
0.169974
0.169578
0.169183
0.16879
0.168398
0.168008
0.167619
0.167232
0.166846
0.166461
0.166078
0.165696
0.165316
0.164937
0.164559
0.164183
0.163808
0.163434
0.163062
0.162691
0.162321
0.161953
0.161586
0.16122
0.160856
0.160493
0.160131
0.159771
0.159411
0.159053
0.158697
0.158341
0.157987
0.157634
0.157282
0.156932
0.156582
0.156234
0.155887
0.155541
0.155197
0.154854
0.154511
0.15417
0.153831
0.153492
0.153154
0.152818
0.152483
0.152149
0.151816
0.151484
0.151153
0.150823
0.150495
0.150167
0.149841
0.149516
0.149192
0.148869
0.148547
0.148226
0.147906
0.147587
0.147269
0.146952
0.146637
0.146322
0.146008
0.145696
0.145384
0.145074
0.144764
0.144456
0.144152
0.143859
0.14362
0.270384
0.330571
0.37502
0.402594
0.419761
0.430198
0.436093
0.439156
0.440497
0.440759
0.440326
0.439443
0.438266
0.436893
0.435389
0.433799
0.432152
0.430468
0.428761
0.427042
0.425317
0.423593
0.421872
0.420158
0.418451
0.416755
0.415069
0.413394
0.411731
0.410079
0.40844
0.406814
0.405199
0.403597
0.402006
0.400428
0.398861
0.397306
0.395762
0.39423
0.392709
0.391199
0.389699
0.38821
0.386732
0.385264
0.383806
0.382358
0.38092
0.379491
0.378072
0.376662
0.375261
0.37387
0.372487
0.371114
0.369749
0.368392
0.367044
0.365705
0.364373
0.36305
0.361735
0.360428
0.359129
0.357838
0.356554
0.355278
0.354009
0.352748
0.351494
0.350247
0.349008
0.347776
0.346551
0.345332
0.344121
0.342916
0.341719
0.340528
0.339343
0.338166
0.336994
0.335829
0.334671
0.333519
0.332373
0.331234
0.3301
0.328973
0.327852
0.326737
0.325627
0.324524
0.323427
0.322335
0.321249
0.320169
0.319095
0.318026
0.316963
0.315905
0.314853
0.313807
0.312765
0.311729
0.310699
0.309674
0.308654
0.307639
0.306629
0.305625
0.304626
0.303632
0.302642
0.301658
0.300679
0.299705
0.298735
0.297771
0.296811
0.295856
0.294906
0.29396
0.29302
0.292084
0.291152
0.290225
0.289303
0.288385
0.287472
0.286563
0.285659
0.284759
0.283863
0.282972
0.282085
0.281203
0.280324
0.27945
0.278581
0.277715
0.276854
0.275996
0.275143
0.274294
0.273449
0.272608
0.271771
0.270938
0.270109
0.269284
0.268463
0.267645
0.266832
0.266022
0.265216
0.264414
0.263616
0.262822
0.262031
0.261244
0.260461
0.259681
0.258905
0.258132
0.257364
0.256598
0.255836
0.255078
0.254324
0.253572
0.252825
0.25208
0.251339
0.250602
0.249868
0.249137
0.24841
0.247686
0.246965
0.246247
0.245533
0.244822
0.244114
0.24341
0.242709
0.24201
0.241315
0.240624
0.239935
0.239249
0.238567
0.237887
0.237211
0.236537
0.235867
0.2352
0.234535
0.233874
0.233215
0.23256
0.231907
0.231257
0.23061
0.229966
0.229325
0.228687
0.228051
0.227419
0.226789
0.226162
0.225537
0.224915
0.224296
0.22368
0.223067
0.222456
0.221847
0.221242
0.220639
0.220038
0.219441
0.218845
0.218253
0.217663
0.217075
0.21649
0.215908
0.215328
0.21475
0.214175
0.213602
0.213032
0.212465
0.211899
0.211336
0.210776
0.210218
0.209662
0.209108
0.208557
0.208008
0.207462
0.206918
0.206376
0.205836
0.205298
0.204763
0.20423
0.2037
0.203171
0.202645
0.202121
0.201599
0.201079
0.200561
0.200045
0.199532
0.199021
0.198511
0.198004
0.197499
0.196996
0.196495
0.195996
0.195499
0.195004
0.194511
0.19402
0.193531
0.193044
0.192559
0.192076
0.191595
0.191116
0.190639
0.190163
0.18969
0.189218
0.188749
0.188281
0.187815
0.187351
0.186888
0.186428
0.185969
0.185512
0.185057
0.184604
0.184152
0.183702
0.183254
0.182808
0.182364
0.181921
0.18148
0.18104
0.180602
0.180166
0.179732
0.179299
0.178868
0.178439
0.178011
0.177585
0.177161
0.176738
0.176317
0.175897
0.175479
0.175063
0.174648
0.174235
0.173823
0.173413
0.173004
0.172597
0.172191
0.171787
0.171384
0.170983
0.170584
0.170185
0.169789
0.169394
0.169
0.168607
0.168217
0.167827
0.167439
0.167053
0.166667
0.166284
0.165901
0.16552
0.165141
0.164762
0.164386
0.16401
0.163636
0.163263
0.162892
0.162521
0.162153
0.161785
0.161419
0.161054
0.16069
0.160328
0.159967
0.159607
0.159248
0.158891
0.158535
0.15818
0.157827
0.157475
0.157124
0.156774
0.156425
0.156078
0.155731
0.155386
0.155042
0.1547
0.154358
0.154018
0.153679
0.153341
0.153004
0.152668
0.152333
0.152
0.151668
0.151336
0.151006
0.150677
0.150349
0.150023
0.149697
0.149372
0.149049
0.148726
0.148405
0.148084
0.147765
0.147447
0.147129
0.146813
0.146498
0.146184
0.145871
0.145559
0.145248
0.144938
0.144629
0.144324
0.144032
0.143792
0.228178
0.258029
0.288821
0.31625
0.339563
0.358691
0.373778
0.385404
0.394261
0.40094
0.405918
0.409573
0.412202
0.414033
0.415237
0.415949
0.416268
0.416275
0.416031
0.415583
0.41497
0.414222
0.413362
0.412411
0.411384
0.410294
0.409153
0.407968
0.406747
0.405496
0.404221
0.402925
0.401613
0.400287
0.39895
0.397605
0.396253
0.394896
0.393535
0.392172
0.390808
0.389444
0.38808
0.386718
0.385357
0.383999
0.382644
0.381292
0.379944
0.3786
0.377261
0.375926
0.374596
0.37327
0.37195
0.370635
0.369326
0.368022
0.366724
0.365431
0.364144
0.362863
0.361588
0.360318
0.359055
0.357798
0.356546
0.355301
0.354061
0.352827
0.3516
0.350378
0.349163
0.347953
0.34675
0.345552
0.34436
0.343174
0.341994
0.34082
0.339652
0.33849
0.337333
0.336182
0.335037
0.333898
0.332764
0.331636
0.330514
0.329397
0.328286
0.327181
0.326081
0.324986
0.323897
0.322814
0.321735
0.320663
0.319595
0.318533
0.317476
0.316424
0.315378
0.314337
0.313301
0.31227
0.311244
0.310223
0.309208
0.308197
0.307191
0.30619
0.305194
0.304203
0.303217
0.302236
0.301259
0.300288
0.299321
0.298358
0.297401
0.296448
0.2955
0.294556
0.293617
0.292682
0.291752
0.290827
0.289906
0.288989
0.288077
0.287169
0.286265
0.285366
0.284471
0.283581
0.282694
0.281812
0.280934
0.280061
0.279191
0.278326
0.277464
0.276607
0.275754
0.274905
0.27406
0.273219
0.272381
0.271548
0.270719
0.269893
0.269072
0.268254
0.26744
0.26663
0.265824
0.265021
0.264222
0.263427
0.262636
0.261848
0.261064
0.260283
0.259507
0.258733
0.257964
0.257197
0.256435
0.255676
0.25492
0.254168
0.253419
0.252674
0.251932
0.251193
0.250458
0.249726
0.248998
0.248273
0.247551
0.246832
0.246117
0.245405
0.244696
0.24399
0.243288
0.242589
0.241892
0.241199
0.240509
0.239823
0.239139
0.238458
0.23778
0.237106
0.236434
0.235765
0.2351
0.234437
0.233777
0.23312
0.232467
0.231816
0.231167
0.230522
0.22988
0.22924
0.228603
0.227969
0.227338
0.226709
0.226084
0.225461
0.22484
0.224223
0.223608
0.222996
0.222386
0.221779
0.221175
0.220573
0.219974
0.219377
0.218783
0.218192
0.217603
0.217017
0.216433
0.215852
0.215273
0.214696
0.214122
0.213551
0.212982
0.212415
0.211851
0.211289
0.21073
0.210173
0.209618
0.209065
0.208515
0.207967
0.207422
0.206879
0.206338
0.205799
0.205262
0.204728
0.204196
0.203666
0.203139
0.202613
0.20209
0.201569
0.20105
0.200533
0.200018
0.199506
0.198995
0.198487
0.19798
0.197476
0.196974
0.196473
0.195975
0.195479
0.194985
0.194493
0.194003
0.193514
0.193028
0.192544
0.192061
0.191581
0.191103
0.190626
0.190151
0.189678
0.189207
0.188738
0.188271
0.187806
0.187342
0.186881
0.186421
0.185963
0.185506
0.185052
0.184599
0.184148
0.183699
0.183252
0.182806
0.182362
0.18192
0.181479
0.18104
0.180603
0.180167
0.179734
0.179302
0.178871
0.178442
0.178015
0.177589
0.177165
0.176743
0.176322
0.175903
0.175486
0.17507
0.174655
0.174242
0.173831
0.173421
0.173013
0.172606
0.172201
0.171797
0.171395
0.170994
0.170595
0.170197
0.169801
0.169406
0.169013
0.168621
0.168231
0.167841
0.167454
0.167068
0.166683
0.166299
0.165917
0.165537
0.165157
0.16478
0.164403
0.164028
0.163654
0.163281
0.16291
0.16254
0.162172
0.161805
0.161439
0.161074
0.160711
0.160349
0.159988
0.159628
0.15927
0.158913
0.158557
0.158203
0.15785
0.157498
0.157147
0.156797
0.156449
0.156101
0.155755
0.155411
0.155067
0.154725
0.154383
0.154043
0.153704
0.153366
0.15303
0.152694
0.15236
0.152026
0.151694
0.151363
0.151033
0.150705
0.150377
0.15005
0.149725
0.1494
0.149077
0.148754
0.148433
0.148113
0.147794
0.147476
0.147159
0.146843
0.146528
0.146214
0.145901
0.145589
0.145278
0.144969
0.144663
0.144369
0.144129
0.214641
0.227086
0.24239
0.259352
0.276822
0.293837
0.309628
0.323787
0.336201
0.346914
0.356048
0.363768
0.370248
0.375654
0.380138
0.383835
0.386859
0.389311
0.391274
0.392818
0.394004
0.394883
0.395497
0.395883
0.39607
0.396087
0.395953
0.39569
0.395313
0.394836
0.394272
0.393631
0.392923
0.392154
0.391334
0.390466
0.389558
0.388613
0.387637
0.386632
0.385601
0.384549
0.383477
0.382388
0.381284
0.380166
0.379037
0.377898
0.37675
0.375595
0.374433
0.373266
0.372095
0.370919
0.369741
0.368561
0.367378
0.366195
0.365012
0.363828
0.362644
0.361461
0.360279
0.359099
0.35792
0.356744
0.355569
0.354397
0.353227
0.35206
0.350897
0.349736
0.348579
0.347425
0.346274
0.345127
0.343984
0.342845
0.34171
0.340579
0.339452
0.338328
0.33721
0.336095
0.334985
0.333879
0.332777
0.33168
0.330587
0.329498
0.328414
0.327335
0.32626
0.32519
0.324124
0.323062
0.322005
0.320953
0.319905
0.318862
0.317824
0.31679
0.31576
0.314735
0.313715
0.312699
0.311687
0.310681
0.309678
0.30868
0.307687
0.306698
0.305714
0.304734
0.303758
0.302787
0.30182
0.300858
0.2999
0.298947
0.297997
0.297053
0.296112
0.295176
0.294244
0.293316
0.292393
0.291473
0.290558
0.289647
0.288741
0.287838
0.28694
0.286046
0.285156
0.284269
0.283387
0.282509
0.281635
0.280766
0.2799
0.279038
0.27818
0.277325
0.276475
0.275629
0.274786
0.273948
0.273113
0.272282
0.271455
0.270631
0.269812
0.268996
0.268184
0.267375
0.26657
0.265769
0.264972
0.264178
0.263388
0.262601
0.261818
0.261038
0.260262
0.25949
0.25872
0.257955
0.257193
0.256434
0.255679
0.254927
0.254179
0.253433
0.252692
0.251953
0.251218
0.250486
0.249758
0.249033
0.24831
0.247592
0.246876
0.246164
0.245455
0.244748
0.244046
0.243346
0.242649
0.241956
0.241265
0.240578
0.239893
0.239212
0.238533
0.237858
0.237186
0.236516
0.23585
0.235186
0.234526
0.233868
0.233213
0.232561
0.231912
0.231266
0.230622
0.229982
0.229344
0.228709
0.228077
0.227447
0.22682
0.226196
0.225575
0.224956
0.22434
0.223726
0.223116
0.222508
0.221902
0.221299
0.220699
0.220101
0.219506
0.218913
0.218323
0.217735
0.21715
0.216568
0.215988
0.21541
0.214835
0.214262
0.213691
0.213123
0.212558
0.211995
0.211434
0.210875
0.210319
0.209765
0.209214
0.208665
0.208118
0.207573
0.207031
0.20649
0.205953
0.205417
0.204883
0.204352
0.203823
0.203296
0.202772
0.202249
0.201729
0.20121
0.200694
0.20018
0.199668
0.199158
0.19865
0.198145
0.197641
0.197139
0.19664
0.196142
0.195646
0.195153
0.194661
0.194171
0.193684
0.193198
0.192714
0.192232
0.191752
0.191274
0.190798
0.190324
0.189851
0.189381
0.188912
0.188445
0.18798
0.187517
0.187056
0.186596
0.186139
0.185683
0.185229
0.184776
0.184326
0.183877
0.183429
0.182984
0.18254
0.182098
0.181658
0.181219
0.180783
0.180347
0.179914
0.179482
0.179052
0.178623
0.178196
0.177771
0.177347
0.176925
0.176504
0.176085
0.175668
0.175252
0.174838
0.174425
0.174014
0.173604
0.173196
0.172789
0.172384
0.171981
0.171579
0.171178
0.170779
0.170381
0.169985
0.16959
0.169197
0.168805
0.168415
0.168026
0.167638
0.167252
0.166867
0.166484
0.166102
0.165721
0.165342
0.164964
0.164587
0.164212
0.163838
0.163466
0.163095
0.162725
0.162356
0.161989
0.161623
0.161258
0.160895
0.160533
0.160172
0.159813
0.159454
0.159097
0.158741
0.158387
0.158034
0.157681
0.157331
0.156981
0.156632
0.156285
0.155939
0.155594
0.15525
0.154908
0.154566
0.154226
0.153887
0.153549
0.153212
0.152877
0.152542
0.152209
0.151877
0.151546
0.151215
0.150886
0.150559
0.150232
0.149906
0.149582
0.149258
0.148936
0.148614
0.148294
0.147974
0.147656
0.147339
0.147023
0.146708
0.146393
0.14608
0.145768
0.145458
0.145151
0.144856
0.144615
0.210104
0.215481
0.2225
0.231134
0.241112
0.252032
0.26341
0.2748
0.285865
0.296366
0.306153
0.315146
0.323318
0.330681
0.337268
0.343129
0.348317
0.352891
0.356906
0.360417
0.363473
0.36612
0.368402
0.370354
0.372012
0.373406
0.374562
0.375506
0.376258
0.376838
0.377262
0.377547
0.377706
0.377751
0.377692
0.37754
0.377304
0.376991
0.376608
0.376162
0.375659
0.375103
0.3745
0.373853
0.373166
0.372444
0.371688
0.370903
0.370091
0.369253
0.368393
0.367512
0.366612
0.365696
0.364763
0.363817
0.362857
0.361886
0.360905
0.359914
0.358915
0.357908
0.356894
0.355874
0.354849
0.353819
0.352784
0.351747
0.350706
0.349662
0.348617
0.34757
0.346521
0.345471
0.344421
0.343371
0.34232
0.34127
0.34022
0.33917
0.338122
0.337075
0.336029
0.334985
0.333942
0.332901
0.331862
0.330825
0.329791
0.328759
0.327729
0.326702
0.325677
0.324655
0.323636
0.32262
0.321607
0.320597
0.31959
0.318586
0.317586
0.316588
0.315594
0.314603
0.313616
0.312632
0.311652
0.310675
0.309702
0.308732
0.307765
0.306803
0.305844
0.304888
0.303936
0.302988
0.302044
0.301103
0.300166
0.299232
0.298302
0.297376
0.296454
0.295535
0.29462
0.293709
0.292802
0.291898
0.290998
0.290102
0.289209
0.28832
0.287435
0.286553
0.285676
0.284801
0.283931
0.283064
0.282201
0.281342
0.280486
0.279634
0.278785
0.27794
0.277099
0.276261
0.275427
0.274596
0.273769
0.272946
0.272126
0.27131
0.270497
0.269687
0.268881
0.268079
0.26728
0.266485
0.265693
0.264904
0.264119
0.263337
0.262559
0.261784
0.261012
0.260244
0.259479
0.258717
0.257959
0.257204
0.256452
0.255704
0.254959
0.254217
0.253478
0.252742
0.25201
0.251281
0.250555
0.249832
0.249112
0.248396
0.247682
0.246972
0.246265
0.24556
0.244859
0.244161
0.243466
0.242774
0.242085
0.241399
0.240715
0.240035
0.239358
0.238684
0.238012
0.237344
0.236678
0.236015
0.235355
0.234698
0.234044
0.233393
0.232744
0.232098
0.231455
0.230815
0.230177
0.229542
0.22891
0.228281
0.227654
0.22703
0.226409
0.22579
0.225174
0.22456
0.223949
0.223341
0.222735
0.222132
0.221531
0.220933
0.220338
0.219745
0.219154
0.218566
0.21798
0.217397
0.216817
0.216238
0.215662
0.215089
0.214518
0.213949
0.213383
0.212819
0.212258
0.211698
0.211141
0.210587
0.210034
0.209484
0.208937
0.208391
0.207848
0.207307
0.206768
0.206231
0.205697
0.205165
0.204634
0.204107
0.203581
0.203057
0.202536
0.202016
0.201499
0.200984
0.200471
0.19996
0.199451
0.198944
0.198439
0.197936
0.197436
0.196937
0.19644
0.195945
0.195452
0.194961
0.194472
0.193985
0.1935
0.193017
0.192536
0.192057
0.191579
0.191104
0.19063
0.190158
0.189688
0.18922
0.188754
0.188289
0.187827
0.187366
0.186907
0.186449
0.185994
0.18554
0.185088
0.184638
0.184189
0.183743
0.183297
0.182854
0.182412
0.181972
0.181534
0.181097
0.180663
0.180229
0.179798
0.179368
0.178939
0.178512
0.178087
0.177664
0.177242
0.176821
0.176402
0.175985
0.175569
0.175155
0.174743
0.174332
0.173922
0.173514
0.173108
0.172703
0.172299
0.171897
0.171496
0.171097
0.1707
0.170304
0.169909
0.169516
0.169124
0.168733
0.168344
0.167957
0.16757
0.167186
0.166802
0.16642
0.166039
0.16566
0.165282
0.164906
0.16453
0.164156
0.163784
0.163412
0.163042
0.162674
0.162306
0.16194
0.161576
0.161212
0.16085
0.160489
0.160129
0.159771
0.159413
0.159057
0.158703
0.158349
0.157997
0.157646
0.157296
0.156947
0.1566
0.156253
0.155908
0.155564
0.155222
0.15488
0.154539
0.1542
0.153862
0.153525
0.153189
0.152854
0.152521
0.152188
0.151857
0.151526
0.151197
0.150869
0.150542
0.150216
0.149891
0.149567
0.149244
0.148923
0.148602
0.148282
0.147964
0.147646
0.14733
0.147014
0.1467
0.146386
0.146075
0.145766
0.14547
0.145228
0.208358
0.2109
0.214191
0.218358
0.223454
0.229447
0.236207
0.243547
0.251262
0.259159
0.267066
0.274837
0.282363
0.289561
0.296377
0.302777
0.308745
0.314278
0.319382
0.32407
0.328359
0.33227
0.335825
0.339046
0.341954
0.344573
0.346922
0.349022
0.35089
0.352546
0.354004
0.35528
0.356388
0.357341
0.358151
0.358829
0.359385
0.359827
0.360166
0.360408
0.360561
0.360631
0.360625
0.360549
0.360407
0.360204
0.359945
0.359634
0.359274
0.358869
0.358423
0.357938
0.357417
0.356862
0.356276
0.355662
0.355021
0.354355
0.353666
0.352955
0.352224
0.351475
0.350709
0.349927
0.34913
0.34832
0.347496
0.346662
0.345816
0.34496
0.344095
0.343222
0.342341
0.341452
0.340558
0.339657
0.338751
0.337839
0.336924
0.336004
0.335081
0.334154
0.333225
0.332293
0.331359
0.330423
0.329486
0.328547
0.327608
0.326667
0.325726
0.324785
0.323843
0.322902
0.32196
0.321019
0.320079
0.31914
0.318201
0.317264
0.316327
0.315392
0.314458
0.313526
0.312595
0.311666
0.310739
0.309814
0.308891
0.30797
0.30705
0.306134
0.305219
0.304307
0.303397
0.302489
0.301584
0.300681
0.299782
0.298884
0.29799
0.297098
0.296208
0.295322
0.294438
0.293558
0.29268
0.291805
0.290932
0.290063
0.289197
0.288334
0.287473
0.286616
0.285762
0.284911
0.284062
0.283217
0.282375
0.281536
0.2807
0.279867
0.279038
0.278211
0.277387
0.276567
0.27575
0.274936
0.274124
0.273317
0.272512
0.27171
0.270911
0.270116
0.269324
0.268534
0.267748
0.266965
0.266185
0.265408
0.264635
0.263864
0.263096
0.262332
0.261571
0.260812
0.260057
0.259305
0.258556
0.25781
0.257066
0.256326
0.255589
0.254855
0.254124
0.253396
0.252671
0.251949
0.25123
0.250514
0.249801
0.24909
0.248383
0.247679
0.246977
0.246279
0.245583
0.24489
0.2442
0.243513
0.242829
0.242147
0.241469
0.240793
0.24012
0.23945
0.238782
0.238118
0.237456
0.236797
0.23614
0.235487
0.234836
0.234188
0.233542
0.232899
0.232259
0.231622
0.230987
0.230354
0.229725
0.229098
0.228473
0.227852
0.227232
0.226616
0.226002
0.22539
0.224781
0.224174
0.22357
0.222969
0.22237
0.221773
0.221179
0.220587
0.219998
0.219411
0.218827
0.218245
0.217665
0.217088
0.216513
0.215941
0.21537
0.214802
0.214237
0.213674
0.213113
0.212554
0.211998
0.211444
0.210892
0.210342
0.209795
0.20925
0.208707
0.208166
0.207627
0.207091
0.206556
0.206024
0.205494
0.204966
0.204441
0.203917
0.203396
0.202876
0.202359
0.201843
0.20133
0.200819
0.20031
0.199803
0.199297
0.198794
0.198293
0.197794
0.197297
0.196802
0.196308
0.195817
0.195328
0.19484
0.194354
0.193871
0.193389
0.192909
0.192431
0.191955
0.19148
0.191008
0.190537
0.190068
0.189601
0.189136
0.188673
0.188211
0.187751
0.187293
0.186837
0.186382
0.185929
0.185478
0.185029
0.184581
0.184135
0.183691
0.183248
0.182807
0.182368
0.181931
0.181495
0.18106
0.180628
0.180197
0.179767
0.179339
0.178913
0.178489
0.178066
0.177644
0.177224
0.176806
0.176389
0.175974
0.17556
0.175148
0.174737
0.174328
0.17392
0.173514
0.17311
0.172706
0.172305
0.171904
0.171506
0.171108
0.170712
0.170318
0.169925
0.169533
0.169143
0.168754
0.168367
0.167981
0.167596
0.167213
0.166831
0.16645
0.166071
0.165693
0.165317
0.164941
0.164567
0.164195
0.163824
0.163454
0.163085
0.162718
0.162352
0.161987
0.161623
0.161261
0.1609
0.16054
0.160182
0.159824
0.159468
0.159114
0.15876
0.158408
0.158056
0.157706
0.157358
0.15701
0.156663
0.156318
0.155974
0.155631
0.155289
0.154949
0.154609
0.154271
0.153934
0.153597
0.153262
0.152929
0.152596
0.152264
0.151933
0.151604
0.151276
0.150948
0.150622
0.150297
0.149973
0.14965
0.149328
0.149007
0.148687
0.148368
0.14805
0.147733
0.147417
0.147103
0.14679
0.14648
0.146183
0.145939
0.207572
0.208875
0.210512
0.212559
0.215095
0.218178
0.221822
0.225997
0.230647
0.235691
0.241041
0.246602
0.252284
0.258003
0.26369
0.269281
0.27473
0.279997
0.285055
0.289883
0.294468
0.298804
0.302888
0.30672
0.310306
0.31365
0.316762
0.319648
0.32232
0.324786
0.327057
0.329142
0.331051
0.332795
0.334381
0.33582
0.337119
0.338287
0.339332
0.340261
0.34108
0.341796
0.342417
0.342946
0.34339
0.343754
0.344043
0.344261
0.344413
0.344502
0.344532
0.344507
0.34443
0.344304
0.344133
0.343918
0.343662
0.343368
0.343038
0.342674
0.342278
0.341853
0.341399
0.340918
0.340413
0.339884
0.339332
0.33876
0.338169
0.337559
0.336931
0.336288
0.335629
0.334955
0.334268
0.333569
0.332857
0.332135
0.331402
0.330659
0.329907
0.329146
0.328378
0.327602
0.326819
0.326029
0.325234
0.324433
0.323627
0.322816
0.322
0.321181
0.320358
0.319531
0.318701
0.317869
0.317034
0.316196
0.315357
0.314516
0.313673
0.312829
0.311983
0.311137
0.31029
0.309442
0.308594
0.307746
0.306897
0.306049
0.3052
0.304352
0.303504
0.302657
0.301811
0.300965
0.30012
0.299276
0.298433
0.297591
0.29675
0.295911
0.295073
0.294236
0.293401
0.292568
0.291736
0.290906
0.290078
0.289251
0.288427
0.287604
0.286783
0.285965
0.285148
0.284333
0.283521
0.282711
0.281902
0.281097
0.280293
0.279492
0.278693
0.277896
0.277102
0.27631
0.275521
0.274734
0.273949
0.273167
0.272388
0.271611
0.270836
0.270064
0.269295
0.268528
0.267763
0.267002
0.266243
0.265486
0.264732
0.263981
0.263232
0.262486
0.261743
0.261002
0.260264
0.259529
0.258796
0.258066
0.257338
0.256614
0.255891
0.255172
0.254455
0.253741
0.253029
0.252321
0.251614
0.250911
0.25021
0.249512
0.248816
0.248123
0.247433
0.246745
0.24606
0.245378
0.244698
0.244021
0.243346
0.242674
0.242005
0.241338
0.240674
0.240013
0.239354
0.238697
0.238043
0.237392
0.236743
0.236097
0.235454
0.234813
0.234174
0.233538
0.232904
0.232273
0.231645
0.231018
0.230395
0.229774
0.229155
0.228539
0.227925
0.227313
0.226704
0.226098
0.225494
0.224892
0.224293
0.223696
0.223101
0.222509
0.221919
0.221331
0.220746
0.220163
0.219582
0.219004
0.218428
0.217854
0.217283
0.216713
0.216146
0.215582
0.215019
0.214459
0.213901
0.213345
0.212791
0.21224
0.21169
0.211143
0.210598
0.210055
0.209515
0.208976
0.208439
0.207905
0.207373
0.206843
0.206314
0.205788
0.205264
0.204742
0.204223
0.203705
0.203189
0.202675
0.202163
0.201653
0.201145
0.200639
0.200135
0.199633
0.199133
0.198635
0.198139
0.197645
0.197152
0.196662
0.196173
0.195687
0.195202
0.194719
0.194238
0.193758
0.193281
0.192805
0.192331
0.191859
0.191389
0.190921
0.190454
0.189989
0.189526
0.189065
0.188605
0.188147
0.187691
0.187237
0.186784
0.186333
0.185884
0.185436
0.18499
0.184546
0.184103
0.183662
0.183223
0.182785
0.182349
0.181915
0.181482
0.18105
0.180621
0.180193
0.179766
0.179341
0.178918
0.178496
0.178076
0.177657
0.17724
0.176824
0.17641
0.175998
0.175587
0.175177
0.174769
0.174362
0.173957
0.173553
0.173151
0.17275
0.172351
0.171953
0.171556
0.171161
0.170767
0.170375
0.169984
0.169595
0.169207
0.16882
0.168434
0.16805
0.167668
0.167286
0.166906
0.166528
0.16615
0.165774
0.1654
0.165026
0.164654
0.164283
0.163914
0.163546
0.163179
0.162813
0.162449
0.162085
0.161724
0.161363
0.161003
0.160645
0.160288
0.159932
0.159578
0.159224
0.158872
0.158521
0.158171
0.157823
0.157475
0.157129
0.156784
0.15644
0.156097
0.155755
0.155415
0.155075
0.154737
0.1544
0.154064
0.153729
0.153395
0.153062
0.152731
0.1524
0.152071
0.151742
0.151415
0.151089
0.150763
0.150439
0.150116
0.149794
0.149473
0.149153
0.148834
0.148516
0.148199
0.147883
0.147569
0.147258
0.14696
0.146715
0.207161
0.207854
0.208705
0.209746
0.211023
0.212585
0.21447
0.216696
0.21927
0.222181
0.225407
0.228913
0.232657
0.236594
0.240676
0.244857
0.249093
0.253344
0.257574
0.261753
0.265855
0.269857
0.273743
0.277499
0.281115
0.284583
0.287898
0.291059
0.294063
0.296912
0.299606
0.302149
0.304543
0.306793
0.308903
0.310877
0.31272
0.314437
0.316033
0.317513
0.318881
0.320143
0.321303
0.322366
0.323337
0.324219
0.325016
0.325734
0.326375
0.326943
0.327441
0.327874
0.328245
0.328555
0.328809
0.329009
0.329158
0.329258
0.329312
0.329322
0.32929
0.329218
0.329109
0.328963
0.328783
0.328571
0.328328
0.328056
0.327756
0.327429
0.327077
0.326702
0.326303
0.325883
0.325443
0.324983
0.324504
0.324008
0.323496
0.322967
0.322424
0.321866
0.321295
0.320711
0.320115
0.319507
0.318888
0.31826
0.317621
0.316973
0.316316
0.315651
0.314979
0.314299
0.313612
0.312918
0.312219
0.311513
0.310802
0.310086
0.309365
0.30864
0.307911
0.307177
0.30644
0.3057
0.304956
0.30421
0.303461
0.302709
0.301956
0.3012
0.300442
0.299683
0.298922
0.29816
0.297396
0.296632
0.295867
0.295101
0.294334
0.293567
0.2928
0.292032
0.291264
0.290497
0.289729
0.288961
0.288194
0.287428
0.286661
0.285896
0.285131
0.284366
0.283603
0.28284
0.282079
0.281318
0.280559
0.2798
0.279043
0.278287
0.277532
0.276779
0.276027
0.275277
0.274528
0.273781
0.273035
0.272291
0.271548
0.270807
0.270068
0.269331
0.268595
0.267862
0.26713
0.2664
0.265672
0.264946
0.264222
0.2635
0.262779
0.262061
0.261345
0.260631
0.259919
0.259209
0.258502
0.257796
0.257093
0.256391
0.255692
0.254995
0.254301
0.253608
0.252918
0.252229
0.251544
0.25086
0.250178
0.249499
0.248822
0.248148
0.247475
0.246805
0.246137
0.245472
0.244808
0.244147
0.243489
0.242832
0.242178
0.241526
0.240876
0.240229
0.239584
0.238941
0.238301
0.237663
0.237027
0.236393
0.235762
0.235133
0.234506
0.233882
0.233259
0.232639
0.232022
0.231406
0.230793
0.230182
0.229574
0.228967
0.228363
0.227761
0.227161
0.226564
0.225968
0.225375
0.224784
0.224196
0.223609
0.223025
0.222443
0.221863
0.221285
0.22071
0.220136
0.219565
0.218996
0.218429
0.217864
0.217301
0.21674
0.216182
0.215625
0.215071
0.214519
0.213969
0.213421
0.212875
0.212331
0.211789
0.211249
0.210711
0.210175
0.209641
0.20911
0.20858
0.208052
0.207526
0.207002
0.20648
0.205961
0.205443
0.204927
0.204413
0.203901
0.20339
0.202882
0.202376
0.201871
0.201369
0.200868
0.200369
0.199872
0.199377
0.198884
0.198393
0.197903
0.197415
0.196929
0.196445
0.195963
0.195483
0.195004
0.194527
0.194052
0.193578
0.193107
0.192637
0.192169
0.191702
0.191238
0.190775
0.190314
0.189854
0.189396
0.18894
0.188485
0.188033
0.187582
0.187132
0.186684
0.186238
0.185793
0.18535
0.184909
0.184469
0.184031
0.183595
0.18316
0.182726
0.182295
0.181864
0.181436
0.181009
0.180583
0.180159
0.179737
0.179316
0.178896
0.178478
0.178062
0.177647
0.177233
0.176821
0.176411
0.176002
0.175594
0.175188
0.174783
0.17438
0.173978
0.173577
0.173178
0.172781
0.172384
0.17199
0.171596
0.171204
0.170813
0.170424
0.170036
0.169649
0.169264
0.16888
0.168498
0.168116
0.167736
0.167358
0.16698
0.166604
0.16623
0.165856
0.165484
0.165113
0.164743
0.164375
0.164008
0.163642
0.163277
0.162914
0.162552
0.162191
0.161831
0.161473
0.161115
0.160759
0.160404
0.16005
0.159698
0.159347
0.158996
0.158647
0.158299
0.157953
0.157607
0.157263
0.156919
0.156577
0.156236
0.155896
0.155557
0.15522
0.154883
0.154548
0.154213
0.15388
0.153547
0.153216
0.152886
0.152557
0.152229
0.151902
0.151576
0.151251
0.150928
0.150605
0.150283
0.149962
0.149643
0.149324
0.149006
0.14869
0.148375
0.148063
0.147764
0.147519
0.206917
0.20727
0.207705
0.208235
0.208879
0.209666
0.210621
0.211767
0.213122
0.214699
0.2165
0.218526
0.220767
0.223209
0.225833
0.228617
0.231537
0.234566
0.237681
0.240855
0.244066
0.247292
0.250512
0.25371
0.256869
0.259976
0.263019
0.265989
0.268877
0.271678
0.274386
0.276998
0.27951
0.281922
0.284232
0.28644
0.288546
0.290552
0.292458
0.294267
0.295979
0.297599
0.299126
0.300565
0.301918
0.303187
0.304374
0.305484
0.306517
0.307477
0.308367
0.309188
0.309944
0.310637
0.31127
0.311843
0.312361
0.312826
0.313238
0.313601
0.313916
0.314185
0.314411
0.314595
0.314738
0.314842
0.31491
0.314942
0.31494
0.314905
0.314839
0.314744
0.314619
0.314467