/*--------------------------------*- C++ -*----------------------------------*\
| =========                 |                                                 |
| \\      /  F ield         | OpenFOAM: The Open Source CFD Toolbox           |
|  \\    /   O peration     | Version:  2506                                  |
|   \\  /    A nd           | Website:  www.openfoam.com                      |
|    \\/     M anipulation  |                                                 |
\*---------------------------------------------------------------------------*/
FoamFile
{
    version     2.0;
    format      ascii;
    arch        "LSB;label=32;scalar=64";
    class       volScalarField;
    location    "700";
    object      k;
}
// * * * * * * * * * * * * * * * * * * * * * * * * * * * * * * * * * * * * * //

dimensions      [0 2 -2 0 0 0 0];

internalField   nonuniform List<scalar> 
131949
(
0.559553
0.61061
0.612364
0.607642
0.603742
0.600655
0.598025
0.595766
0.593798
0.592038
0.590428
0.588931
0.587522
0.58618
0.584892
0.583646
0.582436
0.581256
0.580099
0.578964
0.577846
0.576744
0.575655
0.574578
0.573511
0.572454
0.571405
0.570364
0.569331
0.568304
0.567282
0.566267
0.565257
0.564252
0.563252
0.562256
0.561265
0.560278
0.559295
0.558316
0.557341
0.556369
0.555401
0.554436
0.553475
0.552518
0.551563
0.550612
0.549664
0.548719
0.547778
0.546839
0.545904
0.544971
0.544041
0.543115
0.542191
0.541271
0.540353
0.539438
0.538526
0.537617
0.53671
0.535807
0.534906
0.534008
0.533112
0.53222
0.53133
0.530443
0.529559
0.528677
0.527798
0.526922
0.526049
0.525178
0.524309
0.523444
0.522581
0.521721
0.520863
0.520008
0.519155
0.518305
0.517458
0.516613
0.515771
0.514931
0.514094
0.51326
0.512428
0.511598
0.510771
0.509947
0.509125
0.508305
0.507488
0.506674
0.505862
0.505052
0.504245
0.50344
0.502638
0.501838
0.501041
0.500246
0.499453
0.498663
0.497875
0.497089
0.496306
0.495525
0.494747
0.493971
0.493197
0.492426
0.491657
0.49089
0.490126
0.489364
0.488604
0.487847
0.487091
0.486338
0.485588
0.484839
0.484093
0.483349
0.482607
0.481868
0.481131
0.480396
0.479663
0.478932
0.478204
0.477478
0.476753
0.476032
0.475312
0.474594
0.473879
0.473166
0.472454
0.471745
0.471038
0.470334
0.469631
0.46893
0.468232
0.467536
0.466841
0.466149
0.465459
0.464771
0.464085
0.463401
0.462719
0.462039
0.461361
0.460685
0.460011
0.459339
0.458669
0.458001
0.457335
0.456671
0.456009
0.455349
0.454691
0.454035
0.453381
0.452729
0.452079
0.45143
0.450784
0.450139
0.449497
0.448856
0.448217
0.44758
0.446945
0.446312
0.445681
0.445051
0.444424
0.443798
0.443174
0.442552
0.441932
0.441314
0.440697
0.440082
0.43947
0.438858
0.438249
0.437642
0.437036
0.436432
0.43583
0.435229
0.43463
0.434033
0.433438
0.432845
0.432253
0.431663
0.431075
0.430488
0.429903
0.42932
0.428739
0.428159
0.427581
0.427004
0.42643
0.425857
0.425285
0.424715
0.424147
0.423581
0.423016
0.422453
0.421891
0.421331
0.420773
0.420216
0.419661
0.419107
0.418555
0.418005
0.417456
0.416908
0.416363
0.415818
0.415276
0.414735
0.414195
0.413657
0.413121
0.412586
0.412052
0.41152
0.410989
0.41046
0.409933
0.409407
0.408882
0.408359
0.407838
0.407317
0.406799
0.406281
0.405765
0.405251
0.404738
0.404226
0.403716
0.403207
0.4027
0.402194
0.40169
0.401186
0.400685
0.400184
0.399685
0.399187
0.398691
0.398196
0.397702
0.39721
0.396719
0.396229
0.395741
0.395254
0.394768
0.394284
0.393801
0.393319
0.392838
0.392359
0.391881
0.391404
0.390929
0.390455
0.389982
0.38951
0.38904
0.38857
0.388102
0.387636
0.38717
0.386706
0.386243
0.385781
0.38532
0.38486
0.384402
0.383945
0.383489
0.383034
0.382581
0.382128
0.381677
0.381226
0.380777
0.380329
0.379883
0.379437
0.378992
0.378549
0.378107
0.377666
0.377225
0.376786
0.376348
0.375912
0.375476
0.375041
0.374607
0.374175
0.373743
0.373313
0.372883
0.372455
0.372028
0.371601
0.371176
0.370752
0.370328
0.369906
0.369485
0.369065
0.368645
0.368227
0.36781
0.367394
0.366978
0.366564
0.36615
0.365738
0.365326
0.364916
0.364506
0.364098
0.36369
0.363283
0.362877
0.362472
0.362068
0.361665
0.361263
0.360862
0.360461
0.360062
0.359663
0.359265
0.358868
0.358472
0.358077
0.357683
0.357289
0.356897
0.356505
0.356114
0.355724
0.355334
0.354946
0.354558
0.354172
0.353786
0.353401
0.353016
0.352633
0.35225
0.351868
0.351487
0.351106
0.350727
0.350348
0.34997
0.349593
0.349216
0.34884
0.348465
0.348091
0.347718
0.347345
0.346973
0.346601
0.346231
0.345861
0.345492
0.345124
0.344756
0.344389
0.344024
0.34366
0.343302
0.342964
0.342698
0.437505
0.49331
0.531808
0.554333
0.5678
0.575801
0.5803
0.582718
0.583927
0.584399
0.584403
0.584105
0.583608
0.582974
0.582246
0.581451
0.580608
0.579729
0.578824
0.577899
0.57696
0.57601
0.575053
0.574089
0.57312
0.572149
0.571176
0.570202
0.569227
0.568252
0.567277
0.566303
0.56533
0.564359
0.563388
0.56242
0.561453
0.560488
0.559525
0.558564
0.557606
0.556649
0.555695
0.554743
0.553794
0.552846
0.551902
0.550959
0.55002
0.549082
0.548147
0.547215
0.546285
0.545358
0.544433
0.543511
0.542592
0.541675
0.54076
0.539848
0.538939
0.538032
0.537128
0.536227
0.535328
0.534432
0.533538
0.532647
0.531759
0.530873
0.529989
0.529109
0.52823
0.527355
0.526482
0.525611
0.524744
0.523878
0.523016
0.522155
0.521298
0.520443
0.51959
0.51874
0.517892
0.517048
0.516205
0.515365
0.514528
0.513693
0.51286
0.51203
0.511203
0.510378
0.509555
0.508735
0.507917
0.507102
0.50629
0.505479
0.504671
0.503866
0.503063
0.502262
0.501464
0.500668
0.499875
0.499084
0.498295
0.497509
0.496725
0.495943
0.495164
0.494387
0.493612
0.49284
0.49207
0.491302
0.490537
0.489774
0.489013
0.488255
0.487499
0.486745
0.485993
0.485244
0.484497
0.483752
0.483009
0.482269
0.481531
0.480795
0.480061
0.479329
0.4786
0.477872
0.477147
0.476425
0.475704
0.474985
0.474269
0.473555
0.472843
0.472133
0.471425
0.470719
0.470015
0.469314
0.468614
0.467917
0.467222
0.466528
0.465837
0.465148
0.464461
0.463776
0.463093
0.462412
0.461733
0.461057
0.460382
0.459709
0.459038
0.458369
0.457702
0.457037
0.456375
0.455714
0.455055
0.454398
0.453743
0.45309
0.452438
0.451789
0.451142
0.450496
0.449853
0.449211
0.448572
0.447934
0.447298
0.446664
0.446032
0.445401
0.444773
0.444146
0.443522
0.442899
0.442278
0.441659
0.441041
0.440426
0.439812
0.4392
0.43859
0.437981
0.437375
0.43677
0.436167
0.435566
0.434966
0.434368
0.433772
0.433178
0.432586
0.431995
0.431406
0.430818
0.430233
0.429649
0.429067
0.428486
0.427907
0.42733
0.426755
0.426181
0.425609
0.425038
0.424469
0.423902
0.423336
0.422772
0.42221
0.421649
0.42109
0.420533
0.419977
0.419422
0.41887
0.418319
0.417769
0.417221
0.416675
0.41613
0.415586
0.415044
0.414504
0.413965
0.413428
0.412893
0.412358
0.411826
0.411295
0.410765
0.410237
0.40971
0.409185
0.408661
0.408139
0.407618
0.407098
0.40658
0.406064
0.405549
0.405035
0.404523
0.404012
0.403503
0.402995
0.402488
0.401983
0.401479
0.400977
0.400476
0.399976
0.399478
0.398981
0.398485
0.397991
0.397498
0.397006
0.396516
0.396027
0.39554
0.395053
0.394568
0.394085
0.393602
0.393121
0.392641
0.392163
0.391685
0.391209
0.390735
0.390261
0.389789
0.389318
0.388848
0.38838
0.387912
0.387446
0.386981
0.386518
0.386055
0.385594
0.385134
0.384675
0.384217
0.383761
0.383305
0.382851
0.382398
0.381946
0.381496
0.381046
0.380597
0.38015
0.379704
0.379259
0.378815
0.378372
0.37793
0.37749
0.37705
0.376612
0.376174
0.375738
0.375303
0.374869
0.374436
0.374004
0.373573
0.373143
0.372714
0.372286
0.371859
0.371433
0.371009
0.370585
0.370162
0.36974
0.36932
0.3689
0.368481
0.368063
0.367647
0.367231
0.366816
0.366402
0.365989
0.365577
0.365166
0.364756
0.364347
0.363939
0.363531
0.363125
0.36272
0.362315
0.361911
0.361509
0.361107
0.360706
0.360306
0.359907
0.359509
0.359111
0.358715
0.358319
0.357924
0.35753
0.357137
0.356745
0.356354
0.355963
0.355574
0.355185
0.354797
0.354409
0.354023
0.353637
0.353253
0.352869
0.352485
0.352103
0.351721
0.351341
0.350961
0.350581
0.350203
0.349825
0.349448
0.349072
0.348696
0.348322
0.347948
0.347575
0.347202
0.34683
0.34646
0.346089
0.34572
0.345351
0.344983
0.344616
0.34425
0.343886
0.343527
0.343189
0.342922
0.398944
0.430837
0.461659
0.487593
0.508599
0.525145
0.537752
0.5472
0.554253
0.559503
0.563393
0.566258
0.568346
0.569841
0.570878
0.571558
0.571956
0.572131
0.572126
0.571974
0.571704
0.571336
0.570887
0.57037
0.569797
0.569175
0.568514
0.567817
0.567092
0.566341
0.565568
0.564777
0.56397
0.56315
0.562317
0.561474
0.560622
0.559763
0.558897
0.558025
0.557149
0.556268
0.555384
0.554497
0.553608
0.552717
0.551825
0.550931
0.550036
0.549141
0.548246
0.54735
0.546455
0.54556
0.544665
0.543772
0.542879
0.541987
0.541096
0.540206
0.539318
0.538431
0.537545
0.536661
0.535779
0.534898
0.534019
0.533141
0.532266
0.531392
0.53052
0.529651
0.528783
0.527917
0.527053
0.526191
0.525332
0.524474
0.523619
0.522766
0.521915
0.521066
0.520219
0.519374
0.518532
0.517692
0.516854
0.516019
0.515185
0.514354
0.513525
0.512699
0.511875
0.511053
0.510233
0.509416
0.5086
0.507788
0.506977
0.506169
0.505363
0.504559
0.503758
0.502958
0.502162
0.501367
0.500575
0.499785
0.498997
0.498211
0.497428
0.496647
0.495869
0.495092
0.494318
0.493546
0.492777
0.492009
0.491244
0.490481
0.48972
0.488962
0.488206
0.487452
0.4867
0.48595
0.485203
0.484458
0.483715
0.482974
0.482235
0.481499
0.480764
0.480032
0.479302
0.478574
0.477849
0.477125
0.476404
0.475684
0.474967
0.474252
0.473539
0.472828
0.47212
0.471413
0.470708
0.470006
0.469306
0.468607
0.467911
0.467217
0.466525
0.465835
0.465147
0.464461
0.463777
0.463095
0.462415
0.461737
0.461061
0.460387
0.459715
0.459045
0.458377
0.457711
0.457047
0.456385
0.455725
0.455067
0.45441
0.453756
0.453104
0.452453
0.451805
0.451158
0.450514
0.449871
0.44923
0.448591
0.447954
0.447319
0.446685
0.446054
0.445424
0.444796
0.44417
0.443546
0.442924
0.442303
0.441685
0.441068
0.440453
0.43984
0.439229
0.438619
0.438011
0.437405
0.436801
0.436198
0.435598
0.434999
0.434402
0.433806
0.433212
0.43262
0.43203
0.431442
0.430855
0.43027
0.429686
0.429104
0.428524
0.427946
0.427369
0.426794
0.426221
0.425649
0.425079
0.424511
0.423944
0.423379
0.422815
0.422254
0.421693
0.421135
0.420578
0.420022
0.419468
0.418916
0.418365
0.417816
0.417268
0.416722
0.416178
0.415635
0.415094
0.414554
0.414015
0.413479
0.412943
0.41241
0.411877
0.411347
0.410817
0.410289
0.409763
0.409238
0.408715
0.408193
0.407672
0.407153
0.406636
0.40612
0.405605
0.405092
0.40458
0.404069
0.40356
0.403053
0.402546
0.402042
0.401538
0.401036
0.400535
0.400036
0.399538
0.399041
0.398546
0.398052
0.397559
0.397068
0.396578
0.39609
0.395602
0.395116
0.394632
0.394148
0.393666
0.393185
0.392706
0.392227
0.39175
0.391275
0.3908
0.390327
0.389855
0.389384
0.388915
0.388446
0.387979
0.387513
0.387049
0.386585
0.386123
0.385662
0.385202
0.384744
0.384286
0.38383
0.383375
0.382921
0.382468
0.382016
0.381566
0.381116
0.380668
0.380221
0.379775
0.37933
0.378886
0.378444
0.378002
0.377562
0.377122
0.376684
0.376247
0.375811
0.375376
0.374942
0.374509
0.374077
0.373646
0.373216
0.372788
0.37236
0.371933
0.371508
0.371083
0.370659
0.370237
0.369815
0.369394
0.368975
0.368556
0.368139
0.367722
0.367306
0.366891
0.366478
0.366065
0.365653
0.365242
0.364832
0.364423
0.364015
0.363608
0.363201
0.362796
0.362392
0.361988
0.361585
0.361184
0.360783
0.360383
0.359984
0.359586
0.359188
0.358792
0.358396
0.358002
0.357608
0.357215
0.356822
0.356431
0.356041
0.355651
0.355262
0.354874
0.354487
0.3541
0.353715
0.35333
0.352946
0.352563
0.35218
0.351799
0.351418
0.351038
0.350659
0.35028
0.349902
0.349525
0.349149
0.348774
0.348399
0.348025
0.347652
0.347279
0.346908
0.346537
0.346167
0.345797
0.345428
0.34506
0.344693
0.344329
0.343969
0.34363
0.343363
0.384717
0.399671
0.417137
0.435562
0.453685
0.470605
0.485713
0.498801
0.509935
0.519299
0.527113
0.5336
0.538968
0.543401
0.547052
0.550052
0.552506
0.554503
0.556117
0.557406
0.558419
0.559199
0.559778
0.560185
0.560443
0.560573
0.560592
0.560513
0.560349
0.560111
0.559806
0.559444
0.559031
0.558572
0.558072
0.557537
0.556969
0.556373
0.555751
0.555106
0.55444
0.553756
0.553055
0.552339
0.55161
0.550869
0.550116
0.549354
0.548583
0.547804
0.547018
0.546225
0.545427
0.544623
0.543815
0.543003
0.542187
0.541368
0.540547
0.539722
0.538896
0.538068
0.537238
0.536407
0.535575
0.534743
0.533909
0.533075
0.532241
0.531407
0.530573
0.529739
0.528906
0.528072
0.52724
0.526408
0.525577
0.524747
0.523917
0.523089
0.522262
0.521435
0.52061
0.519787
0.518965
0.518144
0.517324
0.516506
0.51569
0.514875
0.514061
0.51325
0.51244
0.511631
0.510825
0.51002
0.509217
0.508416
0.507616
0.506818
0.506023
0.505229
0.504437
0.503647
0.502858
0.502072
0.501288
0.500505
0.499725
0.498947
0.49817
0.497396
0.496623
0.495853
0.495084
0.494318
0.493554
0.492791
0.492031
0.491273
0.490516
0.489762
0.48901
0.48826
0.487511
0.486765
0.486021
0.485279
0.484539
0.483801
0.483066
0.482332
0.4816
0.48087
0.480143
0.479417
0.478693
0.477972
0.477252
0.476535
0.475819
0.475105
0.474394
0.473685
0.472977
0.472272
0.471568
0.470867
0.470167
0.46947
0.468775
0.468081
0.46739
0.4667
0.466013
0.465327
0.464644
0.463962
0.463282
0.462605
0.461929
0.461255
0.460584
0.459914
0.459246
0.45858
0.457916
0.457254
0.456593
0.455935
0.455279
0.454624
0.453971
0.453321
0.452672
0.452025
0.45138
0.450737
0.450095
0.449456
0.448818
0.448183
0.447549
0.446917
0.446286
0.445658
0.445031
0.444407
0.443784
0.443163
0.442543
0.441926
0.44131
0.440696
0.440084
0.439474
0.438865
0.438258
0.437653
0.43705
0.436448
0.435848
0.43525
0.434654
0.434059
0.433466
0.432875
0.432286
0.431698
0.431112
0.430527
0.429945
0.429364
0.428784
0.428207
0.427631
0.427056
0.426484
0.425912
0.425343
0.424775
0.424209
0.423644
0.423082
0.42252
0.42196
0.421402
0.420846
0.420291
0.419737
0.419186
0.418635
0.418087
0.41754
0.416994
0.41645
0.415908
0.415367
0.414827
0.414289
0.413753
0.413218
0.412685
0.412153
0.411622
0.411093
0.410566
0.41004
0.409515
0.408992
0.408471
0.407951
0.407432
0.406915
0.406399
0.405884
0.405371
0.40486
0.404349
0.403841
0.403333
0.402827
0.402323
0.401819
0.401318
0.400817
0.400318
0.39982
0.399324
0.398829
0.398335
0.397842
0.397351
0.396862
0.396373
0.395886
0.3954
0.394916
0.394432
0.39395
0.39347
0.39299
0.392512
0.392035
0.391559
0.391085
0.390612
0.39014
0.389669
0.3892
0.388732
0.388265
0.387799
0.387334
0.386871
0.386409
0.385948
0.385488
0.38503
0.384572
0.384116
0.383661
0.383207
0.382754
0.382302
0.381852
0.381403
0.380954
0.380507
0.380061
0.379616
0.379173
0.37873
0.378288
0.377848
0.377409
0.37697
0.376533
0.376097
0.375662
0.375228
0.374795
0.374363
0.373932
0.373502
0.373073
0.372646
0.372219
0.371793
0.371369
0.370945
0.370522
0.3701
0.36968
0.36926
0.368841
0.368423
0.368007
0.367591
0.367176
0.366762
0.366349
0.365937
0.365526
0.365116
0.364707
0.364299
0.363891
0.363485
0.363079
0.362675
0.362271
0.361868
0.361466
0.361065
0.360665
0.360266
0.359868
0.35947
0.359074
0.358678
0.358283
0.357889
0.357496
0.357103
0.356712
0.356321
0.355931
0.355542
0.355154
0.354766
0.35438
0.353994
0.353609
0.353225
0.352841
0.352459
0.352077
0.351696
0.351315
0.350936
0.350557
0.350179
0.349802
0.349425
0.34905
0.348675
0.348301
0.347927
0.347554
0.347182
0.346811
0.346441
0.346071
0.345702
0.345334
0.344968
0.344608
0.344268
0.344
0.379451
0.386516
0.395429
0.405971
0.417679
0.430003
0.442377
0.45434
0.465593
0.475964
0.485376
0.493821
0.501335
0.507983
0.513836
0.518974
0.523471
0.5274
0.530824
0.533802
0.536387
0.538623
0.540552
0.542208
0.543622
0.544822
0.545832
0.546671
0.547358
0.547909
0.548338
0.548658
0.548879
0.549011
0.549063
0.549043
0.548956
0.54881
0.54861
0.548361
0.548067
0.547731
0.547358
0.546951
0.546513
0.546045
0.545552
0.545034
0.544494
0.543934
0.543354
0.542758
0.542146
0.541518
0.540878
0.540225
0.539561
0.538886
0.538201
0.537508
0.536806
0.536096
0.53538
0.534657
0.533928
0.533194
0.532455
0.531712
0.530964
0.530213
0.529458
0.5287
0.527939
0.527176
0.52641
0.525642
0.524873
0.524102
0.523329
0.522556
0.521781
0.521006
0.520229
0.519453
0.518675
0.517898
0.51712
0.516342
0.515565
0.514787
0.51401
0.513233
0.512456
0.51168
0.510905
0.51013
0.509356
0.508583
0.507811
0.507039
0.506269
0.505499
0.504731
0.503963
0.503197
0.502432
0.501669
0.500906
0.500145
0.499385
0.498627
0.49787
0.497114
0.49636
0.495607
0.494856
0.494107
0.493359
0.492612
0.491867
0.491124
0.490382
0.489642
0.488904
0.488167
0.487432
0.486699
0.485967
0.485237
0.484509
0.483782
0.483058
0.482335
0.481614
0.480894
0.480176
0.479461
0.478746
0.478034
0.477324
0.476615
0.475908
0.475203
0.4745
0.473798
0.473098
0.472401
0.471705
0.47101
0.470318
0.469628
0.468939
0.468252
0.467567
0.466884
0.466202
0.465523
0.464845
0.464169
0.463495
0.462823
0.462152
0.461484
0.460817
0.460152
0.459489
0.458828
0.458168
0.457511
0.456855
0.456201
0.455549
0.454898
0.45425
0.453603
0.452958
0.452315
0.451673
0.451034
0.450396
0.44976
0.449126
0.448493
0.447863
0.447234
0.446607
0.445981
0.445358
0.444736
0.444116
0.443497
0.442881
0.442266
0.441653
0.441041
0.440432
0.439824
0.439218
0.438613
0.43801
0.437409
0.43681
0.436212
0.435616
0.435022
0.43443
0.433839
0.433249
0.432662
0.432076
0.431492
0.430909
0.430328
0.429749
0.429171
0.428595
0.428021
0.427448
0.426877
0.426307
0.425739
0.425173
0.424608
0.424045
0.423484
0.422924
0.422365
0.421809
0.421253
0.4207
0.420147
0.419597
0.419048
0.4185
0.417954
0.41741
0.416867
0.416325
0.415785
0.415247
0.41471
0.414175
0.413641
0.413108
0.412577
0.412048
0.41152
0.410993
0.410468
0.409944
0.409422
0.408901
0.408382
0.407864
0.407347
0.406832
0.406319
0.405806
0.405295
0.404786
0.404278
0.403771
0.403265
0.402761
0.402259
0.401758
0.401258
0.400759
0.400262
0.399766
0.399271
0.398778
0.398286
0.397795
0.397306
0.396818
0.396331
0.395846
0.395362
0.394879
0.394397
0.393917
0.393438
0.39296
0.392483
0.392008
0.391534
0.391061
0.39059
0.390119
0.38965
0.389182
0.388715
0.38825
0.387786
0.387323
0.386861
0.3864
0.38594
0.385482
0.385025
0.384568
0.384114
0.38366
0.383207
0.382756
0.382305
0.381856
0.381408
0.380961
0.380515
0.38007
0.379627
0.379184
0.378742
0.378302
0.377863
0.377424
0.376987
0.376551
0.376116
0.375682
0.375249
0.374817
0.374386
0.373957
0.373528
0.3731
0.372673
0.372247
0.371823
0.371399
0.370976
0.370554
0.370134
0.369714
0.369295
0.368877
0.36846
0.368044
0.367629
0.367215
0.366802
0.36639
0.365979
0.365569
0.365159
0.364751
0.364343
0.363937
0.363531
0.363126
0.362723
0.36232
0.361918
0.361516
0.361116
0.360717
0.360318
0.35992
0.359523
0.359127
0.358732
0.358338
0.357945
0.357552
0.35716
0.356769
0.356379
0.35599
0.355601
0.355214
0.354827
0.354441
0.354055
0.353671
0.353287
0.352904
0.352522
0.352141
0.35176
0.35138
0.351001
0.350623
0.350245
0.349868
0.349492
0.349117
0.348743
0.348369
0.347996
0.347623
0.347252
0.346881
0.346511
0.346142
0.345775
0.345414
0.345073
0.344804
0.377291
0.380856
0.385399
0.391002
0.397648
0.405209
0.41346
0.422132
0.430969
0.43975
0.448301
0.456491
0.464234
0.47148
0.478205
0.484406
0.490096
0.495295
0.50003
0.50433
0.508226
0.51175
0.51493
0.517795
0.520372
0.522684
0.524755
0.526605
0.528254
0.529718
0.531013
0.532154
0.533154
0.534024
0.534775
0.535416
0.535958
0.536407
0.536771
0.537056
0.537269
0.537416
0.537501
0.537528
0.537503
0.537429
0.537309
0.537147
0.536946
0.536709
0.536438
0.536135
0.535803
0.535444
0.535059
0.534651
0.53422
0.533769
0.533298
0.532809
0.532304
0.531782
0.531246
0.530696
0.530134
0.529559
0.528973
0.528376
0.52777
0.527154
0.52653
0.525897
0.525257
0.52461
0.523957
0.523297
0.522632
0.521961
0.521285
0.520605
0.51992
0.519232
0.518539
0.517843
0.517144
0.516442
0.515738
0.515031
0.514321
0.51361
0.512896
0.512181
0.511464
0.510746
0.510027
0.509306
0.508585
0.507863
0.50714
0.506416
0.505692
0.504967
0.504242
0.503517
0.502792
0.502067
0.501342
0.500617
0.499892
0.499168
0.498443
0.49772
0.496996
0.496274
0.495551
0.49483
0.494109
0.493389
0.49267
0.491951
0.491233
0.490517
0.489801
0.489086
0.488372
0.48766
0.486948
0.486238
0.485528
0.48482
0.484113
0.483407
0.482703
0.481999
0.481297
0.480597
0.479897
0.479199
0.478503
0.477807
0.477114
0.476421
0.47573
0.475041
0.474352
0.473666
0.472981
0.472297
0.471615
0.470934
0.470255
0.469577
0.468901
0.468227
0.467554
0.466883
0.466213
0.465545
0.464878
0.464213
0.463549
0.462888
0.462227
0.461569
0.460912
0.460256
0.459603
0.45895
0.4583
0.457651
0.457004
0.456358
0.455714
0.455072
0.454431
0.453792
0.453155
0.452519
0.451885
0.451253
0.450622
0.449993
0.449365
0.448739
0.448115
0.447493
0.446872
0.446252
0.445635
0.445019
0.444404
0.443792
0.443181
0.442571
0.441964
0.441357
0.440753
0.44015
0.439549
0.438949
0.438351
0.437755
0.43716
0.436567
0.435975
0.435385
0.434797
0.43421
0.433625
0.433041
0.432459
0.431879
0.4313
0.430723
0.430147
0.429573
0.429001
0.42843
0.427861
0.427293
0.426727
0.426162
0.425599
0.425037
0.424477
0.423919
0.423361
0.422806
0.422252
0.4217
0.421149
0.420599
0.420051
0.419505
0.41896
0.418416
0.417874
0.417334
0.416795
0.416257
0.415721
0.415186
0.414653
0.414121
0.413591
0.413062
0.412535
0.412009
0.411484
0.410961
0.410439
0.409919
0.4094
0.408882
0.408366
0.407851
0.407338
0.406826
0.406315
0.405806
0.405298
0.404791
0.404286
0.403782
0.40328
0.402778
0.402278
0.40178
0.401283
0.400787
0.400292
0.399799
0.399307
0.398816
0.398327
0.397839
0.397352
0.396866
0.396382
0.395899
0.395417
0.394937
0.394457
0.393979
0.393502
0.393027
0.392552
0.392079
0.391607
0.391137
0.390667
0.390199
0.389732
0.389266
0.388801
0.388338
0.387875
0.387414
0.386954
0.386495
0.386037
0.385581
0.385125
0.384671
0.384218
0.383766
0.383315
0.382865
0.382417
0.381969
0.381523
0.381077
0.380633
0.38019
0.379748
0.379307
0.378867
0.378428
0.37799
0.377553
0.377118
0.376683
0.376249
0.375817
0.375385
0.374955
0.374525
0.374097
0.373669
0.373243
0.372817
0.372393
0.371969
0.371547
0.371125
0.370705
0.370285
0.369866
0.369449
0.369032
0.368616
0.368201
0.367788
0.367375
0.366963
0.366552
0.366141
0.365732
0.365324
0.364917
0.36451
0.364104
0.3637
0.363296
0.362893
0.362491
0.36209
0.361689
0.36129
0.360891
0.360494
0.360097
0.359701
0.359306
0.358911
0.358518
0.358125
0.357733
0.357342
0.356952
0.356562
0.356174
0.355786
0.355399
0.355013
0.354627
0.354243
0.353859
0.353476
0.353093
0.352712
0.352331
0.351951
0.351572
0.351193
0.350816
0.350439
0.350062
0.349687
0.349312
0.348938
0.348565
0.348192
0.34782
0.347449
0.347079
0.346712
0.346349
0.346007
0.345738
0.37629
0.378226
0.380644
0.383627
0.387247
0.391536
0.396464
0.401953
0.407893
0.414161
0.420631
0.427184
0.433716
0.440142
0.446391
0.452412
0.458169
0.463638
0.468805
0.473665
0.47822
0.482474
0.486437
0.49012
0.493535
0.496697
0.499619
0.502314
0.504796
0.507079
0.509175
0.511096
0.512853
0.514458
0.51592
0.517248
0.518452
0.51954
0.520519
0.521397
0.52218
0.522875
0.523486
0.52402
0.524482
0.524875
0.525205
0.525475
0.525689
0.52585
0.525963
0.526029
0.526051
0.526033
0.525976
0.525883
0.525756
0.525597
0.525408
0.52519
0.524945
0.524676
0.524382
0.524066
0.523728
0.523371
0.522995
0.5226
0.522189
0.521762
0.52132
0.520864
0.520394
0.519911
0.519416
0.51891
0.518394
0.517867
0.51733
0.516784
0.51623
0.515668
0.515098
0.51452
0.513936
0.513345
0.512748
0.512146
0.511538
0.510925
0.510307
0.509684
0.509057
0.508427
0.507792
0.507154
0.506512
0.505867
0.50522
0.504569
0.503917
0.503261
0.502604
0.501944
0.501283
0.500619
0.499955
0.499288
0.49862
0.497952
0.497281
0.49661
0.495938
0.495265
0.494592
0.493918
0.493243
0.492568
0.491892
0.491216
0.49054
0.489864
0.489188
0.488512
0.487836
0.487159
0.486484
0.485808
0.485132
0.484457
0.483783
0.483109
0.482435
0.481762
0.481089
0.480417
0.479746
0.479075
0.478405
0.477736
0.477067
0.4764
0.475733
0.475067
0.474402
0.473738
0.473075
0.472413
0.471752
0.471092
0.470433
0.469775
0.469118
0.468462
0.467808
0.467154
0.466502
0.465851
0.465201
0.464552
0.463905
0.463259
0.462614
0.46197
0.461328
0.460687
0.460047
0.459409
0.458772
0.458136
0.457502
0.456869
0.456237
0.455607
0.454978
0.45435
0.453724
0.453099
0.452476
0.451854
0.451234
0.450615
0.449997
0.449381
0.448766
0.448153
0.447541
0.446931
0.446322
0.445714
0.445108
0.444504
0.443901
0.443299
0.442699
0.442101
0.441503
0.440908
0.440313
0.439721
0.439129
0.43854
0.437951
0.437364
0.436779
0.436195
0.435613
0.435032
0.434452
0.433875
0.433298
0.432723
0.432149
0.431577
0.431007
0.430438
0.42987
0.429304
0.428739
0.428176
0.427614
0.427053
0.426495
0.425937
0.425381
0.424826
0.424273
0.423722
0.423171
0.422623
0.422075
0.421529
0.420985
0.420441
0.4199
0.419359
0.418821
0.418283
0.417747
0.417212
0.416679
0.416147
0.415617
0.415088
0.41456
0.414034
0.413509
0.412985
0.412463
0.411942
0.411422
0.410904
0.410387
0.409872
0.409358
0.408845
0.408334
0.407823
0.407315
0.406807
0.406301
0.405796
0.405293
0.40479
0.404289
0.40379
0.403291
0.402794
0.402299
0.401804
0.401311
0.400819
0.400328
0.399839
0.39935
0.398864
0.398378
0.397893
0.39741
0.396928
0.396447
0.395968
0.395489
0.395012
0.394536
0.394062
0.393588
0.393116
0.392645
0.392175
0.391706
0.391238
0.390772
0.390307
0.389843
0.38938
0.388918
0.388457
0.387998
0.387539
0.387082
0.386626
0.386171
0.385717
0.385264
0.384813
0.384362
0.383913
0.383464
0.383017
0.382571
0.382126
0.381682
0.381239
0.380797
0.380356
0.379916
0.379478
0.37904
0.378603
0.378168
0.377733
0.377299
0.376867
0.376435
0.376005
0.375575
0.375147
0.374719
0.374293
0.373867
0.373442
0.373019
0.372596
0.372175
0.371754
0.371334
0.370915
0.370498
0.370081
0.369665
0.36925
0.368836
0.368422
0.36801
0.367599
0.367188
0.366779
0.36637
0.365963
0.365556
0.36515
0.364745
0.364341
0.363937
0.363535
0.363133
0.362733
0.362333
0.361934
0.361536
0.361138
0.360742
0.360346
0.359951
0.359557
0.359164
0.358772
0.35838
0.35799
0.3576
0.357211
0.356822
0.356435
0.356048
0.355662
0.355277
0.354892
0.354509
0.354126
0.353744
0.353362
0.352982
0.352602
0.352223
0.351844
0.351467
0.35109
0.350714
0.350338
0.349964
0.34959
0.349217
0.348844
0.348473
0.348102
0.347733
0.347371
0.347028
0.346758
0.375763
0.376876
0.378229
0.37987
0.381853
0.384231
0.387033
0.390263
0.393904
0.397918
0.402253
0.40685
0.411641
0.416563
0.421554
0.426557
0.431525
0.436416
0.441197
0.44584
0.450325
0.454639
0.45877
0.462713
0.466464
0.470024
0.473395
0.476579
0.479581
0.482407
0.485064
0.487556
0.489892
0.492077
0.494119
0.496025
0.4978
0.499453
0.500988
0.502411
0.503729
0.504947
0.50607
0.507104
0.508052
0.508919
0.509711
0.510429
0.51108
0.511665
0.512189
0.512654
0.513065
0.513422
0.51373
0.513991
0.514208
0.514382
0.514515
0.51461
0.51467
0.514694
0.514686
0.514647
0.514578
0.514481
0.514357
0.514208
0.514034
0.513838
0.513619
0.51338
0.513121
0.512843
0.512547
0.512234
0.511905
0.51156
0.5112
0.510826
0.510439
0.510038
0.509626
0.509202
0.508766
0.508321
0.507865
0.507399
0.506924
0.506441
0.505949
0.50545
0.504942
0.504428
0.503906
0.503379
0.502845
0.502305
0.501759
0.501208
0.500652
0.500091
0.499525
0.498956
0.498381
0.497803
0.497222
0.496636
0.496048
0.495456
0.494861
0.494263
0.493663
0.49306
0.492455
0.491847
0.491238
0.490626
0.490013
0.489397
0.488781
0.488162
0.487542
0.486921
0.486299
0.485676
0.485051
0.484426
0.4838
0.483173
0.482545
0.481917
0.481288
0.480659
0.480029
0.4794
0.478769
0.478139
0.477508
0.476878
0.476247
0.475616
0.474985
0.474355
0.473725
0.473094
0.472464
0.471835
0.471205
0.470577
0.469948
0.46932
0.468692
0.468065
0.467439
0.466813
0.466187
0.465563
0.464939
0.464315
0.463693
0.463071
0.46245
0.461829
0.46121
0.460591
0.459974
0.459357
0.458741
0.458126
0.457512
0.456899
0.456286
0.455675
0.455065
0.454456
0.453848
0.453241
0.452635
0.45203
0.451427
0.450824
0.450222
0.449622
0.449023
0.448425
0.447828
0.447232
0.446638
0.446044
0.445452
0.444861
0.444271
0.443683
0.443096
0.44251
0.441925
0.441341
0.440759
0.440178
0.439598
0.43902
0.438443
0.437867
0.437292
0.436719
0.436146
0.435576
0.435006
0.434438
0.433871
0.433305
0.432741
0.432178
0.431616
0.431056
0.430497
0.429939
0.429383
0.428828
0.428274
0.427721
0.42717
0.42662
0.426072
0.425524
0.424978
0.424434
0.423891
0.423349
0.422808
0.422268
0.42173
0.421194
0.420658
0.420124
0.419591
0.41906
0.418529
0.418
0.417473
0.416946
0.416421
0.415898
0.415375
0.414854
0.414334
0.413815
0.413298
0.412782
0.412267
0.411754
0.411241
0.41073
0.410221
0.409712
0.409205
0.408699
0.408194
0.407691
0.407189
0.406688
0.406188
0.405689
0.405192
0.404696
0.404201
0.403708
0.403215
0.402724
0.402234
0.401745
0.401258
0.400771
0.400286
0.399802
0.39932
0.398838
0.398358
0.397878
0.3974
0.396923
0.396448
0.395973
0.3955
0.395028
0.394557
0.394087
0.393618
0.39315
0.392684
0.392218
0.391754
0.391291
0.390829
0.390368
0.389908
0.38945
0.388992
0.388535
0.38808
0.387626
0.387173
0.38672
0.386269
0.385819
0.38537
0.384923
0.384476
0.38403
0.383585
0.383142
0.382699
0.382258
0.381817
0.381377
0.380939
0.380502
0.380065
0.37963
0.379195
0.378762
0.378329
0.377898
0.377467
0.377038
0.376609
0.376182
0.375755
0.37533
0.374905
0.374482
0.374059
0.373637
0.373216
0.372796
0.372377
0.371959
0.371542
0.371126
0.370711
0.370297
0.369883
0.369471
0.369059
0.368648
0.368238
0.367829
0.367421
0.367014
0.366608
0.366202
0.365798
0.365394
0.364991
0.364589
0.364188
0.363788
0.363388
0.362989
0.362592
0.362195
0.361798
0.361403
0.361009
0.360615
0.360222
0.35983
0.359438
0.359048
0.358658
0.358269
0.357881
0.357493
0.357107
0.356721
0.356336
0.355951
0.355568
0.355185
0.354803
0.354422
0.354041
0.353661
0.353282
0.352904
0.352526
0.352149
0.351773
0.351397
0.351023
0.350648
0.350275
0.349903
0.349531
0.34916
0.348791
0.348428
0.348085
0.347815
0.375453
0.376105
0.376886
0.377816
0.378925
0.38025
0.381821
0.383662
0.385785
0.388194
0.390881
0.39383
0.397016
0.400408
0.403972
0.407673
0.411473
0.415339
0.419238
0.423141
0.42702
0.430854
0.434623
0.438311
0.441905
0.445394
0.448771
0.45203
0.455167
0.458179
0.461066
0.463827
0.466463
0.468976
0.471368
0.473641
0.475799
0.477845
0.479783
0.481615
0.483345
0.484978
0.486516
0.487964
0.489325
0.490602
0.491799
0.492918
0.493965
0.49494
0.495848
0.496691
0.497472
0.498194
0.498859
0.49947
0.500029
0.500539
0.501001
0.501417
0.50179
0.502121
0.502413
0.502666
0.502883
0.503065
0.503214
0.50333
0.503417
0.503473
0.503502
0.503504
0.50348
0.503432
0.50336