/*--------------------------------*- C++ -*----------------------------------*\
| =========                 |                                                 |
| \\      /  F ield         | OpenFOAM: The Open Source CFD Toolbox           |
|  \\    /   O peration     | Version:  2506                                  |
|   \\  /    A nd           | Website:  www.openfoam.com                      |
|    \\/     M anipulation  |                                                 |
\*---------------------------------------------------------------------------*/
FoamFile
{
    version     2.0;
    format      ascii;
    arch        "LSB;label=32;scalar=64";
    class       volScalarField;
    location    "700";
    object      nut;
}
// * * * * * * * * * * * * * * * * * * * * * * * * * * * * * * * * * * * * * //

dimensions      [0 2 -1 0 0 0 0];

internalField   nonuniform List<scalar> 
131949
(
0.0659348
0.068194
0.068284
0.0682257
0.0682935
0.0684261
0.0685771
0.0687316
0.0688829
0.0690269
0.0691624
0.0692894
0.0694082
0.0695196
0.069624
0.0697222
0.0698147
0.0699021
0.0699847
0.0700631
0.0701375
0.0702083
0.0702758
0.0703402
0.0704018
0.0704608
0.0705173
0.0705716
0.0706238
0.0706739
0.0707222
0.0707688
0.0708138
0.0708572
0.0708992
0.0709398
0.0709791
0.0710172
0.0710541
0.07109
0.0711248
0.0711586
0.0711915
0.0712235
0.0712546
0.0712849
0.0713145
0.0713433
0.0713713
0.0713987
0.0714255
0.0714516
0.0714771
0.071502
0.0715264
0.0715502
0.0715735
0.0715964
0.0716187
0.0716406
0.0716621
0.0716831
0.0717037
0.0717239
0.0717437
0.0717632
0.0717822
0.071801
0.0718194
0.0718374
0.0718552
0.0718726
0.0718897
0.0719066
0.0719232
0.0719394
0.0719555
0.0719712
0.0719867
0.072002
0.072017
0.0720318
0.0720464
0.0720608
0.0720749
0.0720888
0.0721025
0.0721161
0.0721294
0.0721426
0.0721555
0.0721683
0.0721809
0.0721933
0.0722056
0.0722177
0.0722297
0.0722415
0.0722531
0.0722646
0.0722759
0.0722871
0.0722982
0.0723091
0.0723199
0.0723306
0.0723411
0.0723515
0.0723618
0.072372
0.0723821
0.072392
0.0724018
0.0724116
0.0724212
0.0724307
0.0724401
0.0724494
0.0724586
0.0724677
0.0724767
0.0724856
0.0724944
0.0725031
0.0725118
0.0725203
0.0725288
0.0725372
0.0725455
0.0725537
0.0725618
0.0725699
0.0725779
0.0725858
0.0725936
0.0726014
0.0726091
0.0726167
0.0726242
0.0726317
0.0726391
0.0726465
0.0726537
0.0726609
0.0726681
0.0726752
0.0726822
0.0726892
0.0726961
0.072703
0.0727098
0.0727165
0.0727232
0.0727298
0.0727364
0.0727429
0.0727494
0.0727558
0.0727622
0.0727685
0.0727748
0.072781
0.0727872
0.0727933
0.0727994
0.0728055
0.0728115
0.0728175
0.0728234
0.0728292
0.0728351
0.0728409
0.0728466
0.0728523
0.072858
0.0728637
0.0728693
0.0728748
0.0728804
0.0728858
0.0728913
0.0728967
0.0729021
0.0729075
0.0729128
0.0729181
0.0729233
0.0729286
0.0729337
0.0729389
0.072944
0.0729491
0.0729542
0.0729593
0.0729643
0.0729693
0.0729742
0.0729791
0.072984
0.0729889
0.0729938
0.0729986
0.0730034
0.0730082
0.0730129
0.0730177
0.0730224
0.073027
0.0730317
0.0730363
0.0730409
0.0730455
0.0730501
0.0730546
0.0730591
0.0730636
0.0730681
0.0730725
0.073077
0.0730814
0.0730858
0.0730902
0.0730945
0.0730989
0.0731032
0.0731075
0.0731117
0.073116
0.0731202
0.0731245
0.0731287
0.0731329
0.073137
0.0731412
0.0731453
0.0731494
0.0731535
0.0731576
0.0731617
0.0731657
0.0731698
0.0731738
0.0731778
0.0731818
0.0731858
0.0731897
0.0731937
0.0731976
0.0732015
0.0732054
0.0732093
0.0732131
0.073217
0.0732208
0.0732246
0.0732284
0.0732322
0.073236
0.0732398
0.0732435
0.0732473
0.073251
0.0732547
0.0732584
0.0732621
0.0732657
0.0732694
0.073273
0.0732766
0.0732802
0.0732838
0.0732874
0.073291
0.0732945
0.0732981
0.0733016
0.0733051
0.0733086
0.0733121
0.0733156
0.073319
0.0733225
0.0733259
0.0733293
0.0733327
0.0733361
0.0733394
0.0733428
0.0733461
0.0733495
0.0733528
0.0733561
0.0733593
0.0733626
0.0733659
0.0733691
0.0733723
0.0733755
0.0733787
0.0733819
0.073385
0.0733881
0.0733913
0.0733944
0.0733975
0.0734005
0.0734036
0.0734066
0.0734096
0.0734126
0.0734156
0.0734186
0.0734215
0.0734244
0.0734274
0.0734302
0.0734331
0.073436
0.0734388
0.0734416
0.0734444
0.0734472
0.0734499
0.0734527
0.0734554
0.0734581
0.0734607
0.0734634
0.073466
0.0734686
0.0734712
0.0734737
0.0734763
0.0734788
0.0734813
0.0734837
0.0734862
0.0734886
0.073491
0.0734934
0.0734957
0.073498
0.0735003
0.0735026
0.0735048
0.0735071
0.0735093
0.0735114
0.0735136
0.0735157
0.0735178
0.0735198
0.0735219
0.0735239
0.0735258
0.0735278
0.0735297
0.0735316
0.0735334
0.0735353
0.0735371
0.0735388
0.0735406
0.0735423
0.073544
0.0735456
0.0735472
0.0735488
0.0735504
0.0735519
0.0735534
0.0735548
0.0735562
0.0735576
0.073559
0.0735603
0.0735616
0.0735628
0.0735641
0.0735652
0.0735664
0.0735675
0.0735686
0.0735696
0.0735707
0.0735716
0.0735726
0.0735735
0.0735744
0.0735752
0.073576
0.0735768
0.0735775
0.0735782
0.0735789
0.0735797
0.0735807
0.0735827
0.0735869
0.0735954
0.0637129
0.066255
0.0678732
0.0686936
0.0691245
0.0693616
0.0694973
0.0695891
0.0696653
0.0697364
0.069806
0.069875
0.0699434
0.070011
0.0700774
0.0701423
0.0702056
0.0702671
0.0703267
0.0703844
0.0704403
0.0704944
0.0705467
0.0705973
0.0706463
0.0706937
0.0707396
0.0707841
0.0708272
0.0708689
0.0709095
0.0709488
0.0709869
0.071024
0.0710601
0.0710951
0.0711292
0.0711624
0.0711947
0.0712261
0.0712568
0.0712867
0.0713158
0.0713443
0.0713721
0.0713992
0.0714257
0.0714516
0.0714769
0.0715016
0.0715258
0.0715495
0.0715727
0.0715954
0.0716177
0.0716395
0.0716609
0.0716818
0.0717024
0.0717225
0.0717423
0.0717617
0.0717807
0.0717994
0.0718178
0.0718358
0.0718536
0.071871
0.0718881
0.071905
0.0719215
0.0719378
0.0719539
0.0719696
0.0719851
0.0720004
0.0720155
0.0720303
0.0720448
0.0720592
0.0720734
0.0720873
0.0721011
0.0721146
0.072128
0.0721411
0.0721541
0.0721669
0.0721795
0.072192
0.0722043
0.0722164
0.0722284
0.0722402
0.0722519
0.0722634
0.0722747
0.072286
0.072297
0.072308
0.0723188
0.0723295
0.0723401
0.0723505
0.0723608
0.072371
0.0723811
0.072391
0.0724009
0.0724106
0.0724203
0.0724298
0.0724392
0.0724485
0.0724577
0.0724669
0.0724759
0.0724848
0.0724936
0.0725024
0.072511
0.0725196
0.0725281
0.0725365
0.0725448
0.072553
0.0725612
0.0725693
0.0725773
0.0725852
0.072593
0.0726008
0.0726085
0.0726161
0.0726237
0.0726312
0.0726386
0.0726459
0.0726532
0.0726605
0.0726676
0.0726747
0.0726818
0.0726887
0.0726957
0.0727025
0.0727093
0.0727161
0.0727228
0.0727294
0.072736
0.0727425
0.072749
0.0727554
0.0727618
0.0727681
0.0727744
0.0727807
0.0727868
0.072793
0.0727991
0.0728051
0.0728111
0.0728171
0.072823
0.0728289
0.0728347
0.0728405
0.0728463
0.072852
0.0728576
0.0728633
0.0728689
0.0728744
0.07288
0.0728855
0.0728909
0.0728963
0.0729017
0.0729071
0.0729124
0.0729177
0.0729229
0.0729281
0.0729333
0.0729385
0.0729436
0.0729487
0.0729538
0.0729588
0.0729638
0.0729688
0.0729737
0.0729787
0.0729835
0.0729884
0.0729933
0.0729981
0.0730029
0.0730076
0.0730124
0.0730171
0.0730218
0.0730264
0.0730311
0.0730357
0.0730403
0.0730449
0.0730494
0.073054
0.0730585
0.073063
0.0730674
0.0730719
0.0730763
0.0730807
0.0730851
0.0730895
0.0730938
0.0730981
0.0731024
0.0731067
0.073111
0.0731152
0.0731195
0.0731237
0.0731279
0.073132
0.0731362
0.0731403
0.0731445
0.0731486
0.0731527
0.0731567
0.0731608
0.0731648
0.0731689
0.0731729
0.0731769
0.0731809
0.0731848
0.0731888
0.0731927
0.0731966
0.0732005
0.0732044
0.0732083
0.0732121
0.073216
0.0732198
0.0732236
0.0732274
0.0732312
0.073235
0.0732387
0.0732425
0.0732462
0.0732499
0.0732536
0.0732573
0.073261
0.0732647
0.0732683
0.073272
0.0732756
0.0732792
0.0732828
0.0732864
0.0732899
0.0732935
0.073297
0.0733005
0.0733041
0.0733076
0.073311
0.0733145
0.073318
0.0733214
0.0733248
0.0733283
0.0733317
0.0733351
0.0733384
0.0733418
0.0733451
0.0733485
0.0733518
0.0733551
0.0733584
0.0733617
0.0733649
0.0733682
0.0733714
0.0733746
0.0733778
0.073381
0.0733842
0.0733873
0.0733905
0.0733936
0.0733967
0.0733998
0.0734029
0.0734059
0.073409
0.073412
0.073415
0.073418
0.073421
0.073424
0.0734269
0.0734298
0.0734327
0.0734356
0.0734385
0.0734413
0.0734442
0.073447
0.0734498
0.0734525
0.0734553
0.073458
0.0734607
0.0734634
0.0734661
0.0734687
0.0734714
0.073474
0.0734766
0.0734791
0.0734817
0.0734842
0.0734867
0.0734892
0.0734916
0.0734941
0.0734965
0.0734989
0.0735012
0.0735035
0.0735059
0.0735081
0.0735104
0.0735126
0.0735149
0.073517
0.0735192
0.0735213
0.0735234
0.0735255
0.0735276
0.0735296
0.0735316
0.0735336
0.0735355
0.0735374
0.0735393
0.0735412
0.073543
0.0735448
0.0735466
0.0735483
0.07355
0.0735517
0.0735533
0.0735549
0.0735565
0.0735581
0.0735596
0.0735611
0.0735625
0.073564
0.0735653
0.0735667
0.073568
0.0735693
0.0735706
0.0735718
0.073573
0.0735741
0.0735753
0.0735763
0.0735774
0.0735784
0.0735794
0.0735803
0.0735813
0.0735821
0.073583
0.0735838
0.0735846
0.0735853
0.073586
0.0735867
0.0735874
0.0735881
0.0735891
0.073591
0.0735953
0.0736037
0.0627756
0.0647438
0.0664136
0.0676594
0.0685604
0.069196
0.0696295
0.0699228
0.0701254
0.0702697
0.0703766
0.0704596
0.0705275
0.0705856
0.0706372
0.0706844
0.0707286
0.0707705
0.0708108
0.0708496
0.0708874
0.0709241
0.0709598
0.0709948
0.0710289
0.0710623
0.071095
0.0711269
0.0711581
0.0711887
0.0712187
0.071248
0.0712767
0.0713048
0.0713323
0.0713592
0.0713856
0.0714115
0.0714368
0.0714617
0.071486
0.0715099
0.0715333
0.0715562
0.0715787
0.0716008
0.0716225
0.0716438
0.0716646
0.0716851
0.0717053
0.071725
0.0717445
0.0717636
0.0717823
0.0718007
0.0718189
0.0718367
0.0718542
0.0718714
0.0718884
0.0719051
0.0719215
0.0719376
0.0719536
0.0719692
0.0719846
0.0719998
0.0720148
0.0720295
0.072044
0.0720583
0.0720724
0.0720863
0.0721
0.0721136
0.0721269
0.07214
0.072153
0.0721658
0.0721784
0.0721908
0.0722031
0.0722152
0.0722272
0.072239
0.0722507
0.0722622
0.0722736
0.0722848
0.0722959
0.0723069
0.0723177
0.0723284
0.072339
0.0723494
0.0723597
0.0723699
0.07238
0.07239
0.0723999
0.0724096
0.0724193
0.0724288
0.0724383
0.0724476
0.0724568
0.072466
0.072475
0.0724839
0.0724928
0.0725016
0.0725102
0.0725188
0.0725273
0.0725357
0.0725441
0.0725523
0.0725605
0.0725686
0.0725766
0.0725845
0.0725924
0.0726002
0.0726079
0.0726155
0.0726231
0.0726306
0.072638
0.0726454
0.0726527
0.07266
0.0726671
0.0726742
0.0726813
0.0726883
0.0726952
0.0727021
0.0727089
0.0727157
0.0727224
0.072729
0.0727356
0.0727421
0.0727486
0.0727551
0.0727615
0.0727678
0.0727741
0.0727803
0.0727865
0.0727926
0.0727987
0.0728048
0.0728108
0.0728167
0.0728227
0.0728285
0.0728344
0.0728402
0.0728459
0.0728516
0.0728573
0.0728629
0.0728685
0.0728741
0.0728796
0.0728851
0.0728905
0.0728959
0.0729013
0.0729066
0.0729119
0.0729172
0.0729224
0.0729276
0.0729328
0.072938
0.0729431
0.0729481
0.0729532
0.0729582
0.0729632
0.0729682
0.0729731
0.072978
0.0729829
0.0729877
0.0729926
0.0729974
0.0730021
0.0730069
0.0730116
0.0730163
0.073021
0.0730256
0.0730302
0.0730348
0.0730394
0.073044
0.0730485
0.073053
0.0730575
0.073062
0.0730664
0.0730708
0.0730752
0.0730796
0.073084
0.0730883
0.0730926
0.0730969
0.0731012
0.0731055
0.0731097
0.073114
0.0731182
0.0731224
0.0731265
0.0731307
0.0731348
0.0731389
0.0731431
0.0731471
0.0731512
0.0731553
0.0731593
0.0731633
0.0731673
0.0731713
0.0731753
0.0731792
0.0731832
0.0731871
0.073191
0.0731949
0.0731988
0.0732027
0.0732065
0.0732104
0.0732142
0.073218
0.0732218
0.0732256
0.0732294
0.0732331
0.0732369
0.0732406
0.0732443
0.073248
0.0732517
0.0732554
0.0732591
0.0732627
0.0732663
0.07327
0.0732736
0.0732772
0.0732808
0.0732843
0.0732879
0.0732915
0.073295
0.0732985
0.073302
0.0733055
0.073309
0.0733125
0.0733159
0.0733194
0.0733228
0.0733262
0.0733297
0.0733331
0.0733364
0.0733398
0.0733432
0.0733465
0.0733498
0.0733532
0.0733565
0.0733598
0.0733631
0.0733663
0.0733696
0.0733728
0.073376
0.0733793
0.0733825
0.0733856
0.0733888
0.073392
0.0733951
0.0733983
0.0734014
0.0734045
0.0734076
0.0734106
0.0734137
0.0734167
0.0734198
0.0734228
0.0734258
0.0734287
0.0734317
0.0734346
0.0734376
0.0734405
0.0734434
0.0734463
0.0734491
0.073452
0.0734548
0.0734576
0.0734604
0.0734632
0.0734659
0.0734687
0.0734714
0.0734741
0.0734768
0.0734794
0.0734821
0.0734847
0.0734873
0.0734899
0.0734925
0.073495
0.0734975
0.0735
0.0735025
0.0735049
0.0735074
0.0735098
0.0735122
0.0735145
0.0735169
0.0735192
0.0735215
0.0735238
0.073526
0.0735282
0.0735304
0.0735326
0.0735348
0.0735369
0.073539
0.0735411
0.0735431
0.0735451
0.0735471
0.0735491
0.073551
0.0735529
0.0735548
0.0735567
0.0735585
0.0735603
0.0735621
0.0735638
0.0735655
0.0735672
0.0735688
0.0735705
0.073572
0.0735736
0.0735751
0.0735766
0.0735781
0.0735795
0.0735809
0.0735823
0.0735836
0.0735849
0.0735862
0.0735874
0.0735886
0.0735898
0.0735909
0.0735921
0.0735931
0.0735942
0.0735952
0.0735961
0.073597
0.0735979
0.0735988
0.0735996
0.0736004
0.0736012
0.0736019
0.0736026
0.0736033
0.0736039
0.0736045
0.0736052
0.0736062
0.073608
0.0736122
0.0736206
0.0620602
0.063308
0.0646078
0.0658342
0.0669193
0.0678343
0.0685744
0.0691571
0.0696103
0.0699611
0.0702329
0.0704448
0.0706118
0.070745
0.0708531
0.0709423
0.0710172
0.0710811
0.0711367
0.0711859
0.0712299
0.0712699
0.0713067
0.0713409
0.0713729
0.0714032
0.0714319
0.0714593
0.0714857
0.0715111
0.0715356
0.0715594
0.0715825
0.071605
0.0716269
0.0716483
0.0716692
0.0716897
0.0717097
0.0717293
0.0717486
0.0717675
0.071786
0.0718043
0.0718222
0.0718398
0.0718571
0.0718741
0.0718908
0.0719073
0.0719235
0.0719395
0.0719552
0.0719707
0.0719859
0.0720009
0.0720157
0.0720303
0.0720447
0.0720589
0.0720729
0.0720867
0.0721003
0.0721137
0.0721269
0.07214
0.0721529
0.0721656
0.0721781
0.0721905
0.0722028
0.0722148
0.0722268
0.0722385
0.0722502
0.0722617
0.072273
0.0722842
0.0722953
0.0723062
0.0723171
0.0723277
0.0723383
0.0723488
0.0723591
0.0723693
0.0723794
0.0723894
0.0723992
0.072409
0.0724186
0.0724282
0.0724376
0.072447
0.0724562
0.0724654
0.0724744
0.0724834
0.0724923
0.072501
0.0725097
0.0725183
0.0725268
0.0725353
0.0725436
0.0725519
0.0725601
0.0725682
0.0725762
0.0725841
0.072592
0.0725998
0.0726076
0.0726152
0.0726228
0.0726303
0.0726378
0.0726452
0.0726525
0.0726597
0.0726669
0.0726741
0.0726811
0.0726881
0.0726951
0.072702
0.0727088
0.0727156
0.0727223
0.0727289
0.0727355
0.0727421
0.0727486
0.072755
0.0727614
0.0727678
0.072774
0.0727803
0.0727865
0.0727926
0.0727987
0.0728048
0.0728108
0.0728168
0.0728227
0.0728285
0.0728344
0.0728402
0.0728459
0.0728516
0.0728573
0.0728629
0.0728685
0.072874
0.0728795
0.072885
0.0728904
0.0728958
0.0729012
0.0729065
0.0729118
0.0729171
0.0729223
0.0729275
0.0729326
0.0729378
0.0729428
0.0729479
0.0729529
0.0729579
0.0729629
0.0729678
0.0729728
0.0729776
0.0729825
0.0729873
0.0729921
0.0729969
0.0730016
0.0730063
0.073011
0.0730157
0.0730203
0.073025
0.0730296
0.0730341
0.0730387
0.0730432
0.0730477
0.0730522
0.0730566
0.073061
0.0730655
0.0730698
0.0730742
0.0730786
0.0730829
0.0730872
0.0730915
0.0730957
0.0731
0.0731042
0.0731084
0.0731126
0.0731168
0.0731209
0.0731251
0.0731292
0.0731333
0.0731374
0.0731414
0.0731455
0.0731495
0.0731535
0.0731575
0.0731615
0.0731655
0.0731694
0.0731734
0.0731773
0.0731812
0.0731851
0.073189
0.0731928
0.0731967
0.0732005
0.0732043
0.0732082
0.0732119
0.0732157
0.0732195
0.0732232
0.073227
0.0732307
0.0732344
0.0732381
0.0732418
0.0732455
0.0732491
0.0732528
0.0732564
0.0732601
0.0732637
0.0732673
0.0732709
0.0732744
0.073278
0.0732816
0.0732851
0.0732886
0.0732921
0.0732957
0.0732991
0.0733026
0.0733061
0.0733096
0.073313
0.0733164
0.0733199
0.0733233
0.0733267
0.0733301
0.0733335
0.0733368
0.0733402
0.0733435
0.0733469
0.0733502
0.0733535
0.0733568
0.0733601
0.0733634
0.0733667
0.0733699
0.0733732
0.0733764
0.0733796
0.0733828
0.073386
0.0733892
0.0733924
0.0733955
0.0733987
0.0734018
0.0734049
0.0734081
0.0734112
0.0734142
0.0734173
0.0734204
0.0734234
0.0734265
0.0734295
0.0734325
0.0734355
0.0734385
0.0734415
0.0734444
0.0734473
0.0734503
0.0734532
0.0734561
0.073459
0.0734618
0.0734647
0.0734675
0.0734703
0.0734731
0.0734759
0.0734787
0.0734815
0.0734842
0.0734869
0.0734896
0.0734923
0.073495
0.0734977
0.0735003
0.0735029
0.0735055
0.0735081
0.0735107
0.0735132
0.0735157
0.0735182
0.0735207
0.0735232
0.0735256
0.073528
0.0735305
0.0735328
0.0735352
0.0735375
0.0735399
0.0735422
0.0735444
0.0735467
0.0735489
0.0735511
0.0735533
0.0735555
0.0735576
0.0735597
0.0735618
0.0735639
0.0735659
0.0735679
0.0735699
0.0735719
0.0735738
0.0735757
0.0735776
0.0735794
0.0735813
0.0735831
0.0735849
0.0735866
0.0735883
0.07359
0.0735917
0.0735933
0.0735949
0.0735965
0.073598
0.0735995
0.073601
0.0736025
0.0736039
0.0736053
0.0736066
0.073608
0.0736093
0.0736105
0.0736117
0.0736129
0.0736141
0.0736152
0.0736163
0.0736174
0.0736184
0.0736194
0.0736204
0.0736213
0.0736222
0.0736231
0.0736239
0.0736247
0.0736255
0.0736262
0.0736269
0.0736275
0.0736282
0.0736288
0.0736293
0.0736299
0.0736305
0.0736314
0.0736332
0.0736373
0.0736457
0.0616763
0.0623976
0.0632484
0.0641755
0.0651192
0.0660283
0.0668645
0.0676064
0.0682488
0.0687958
0.0692564
0.0696417
0.0699631
0.0702313
0.0704557
0.0706441
0.0708032
0.0709384
0.0710541
0.0711538
0.0712404
0.0713162
0.0713831
0.0714425
0.0714957
0.0715437
0.0715873
0.0716271
0.0716637
0.0716976
0.0717291
0.0717586
0.0717863
0.0718124
0.0718371
0.0718606
0.0718831
0.0719045
0.0719251
0.0719449
0.071964
0.0719825
0.0720003
0.0720177
0.0720345
0.0720509
0.0720668
0.0720824
0.0720976
0.0721124
0.072127
0.0721412
0.0721551
0.0721688
0.0721822
0.0721954
0.0722083
0.072221
0.0722335
0.0722458
0.0722579
0.0722698
0.0722816
0.0722931
0.0723045
0.0723158
0.0723269
0.0723378
0.0723486
0.0723592
0.0723697
0.0723801
0.0723903
0.0724004
0.0724104
0.0724203
0.07243
0.0724397
0.0724492
0.0724586
0.0724679
0.0724771
0.0724862
0.0724952
0.0725041
0.0725129
0.0725216
0.0725302
0.0725388
0.0725472
0.0725556
0.0725638
0.072572
0.0725801
0.0725881
0.0725961
0.072604
0.0726117
0.0726195
0.0726271
0.0726347
0.0726422
0.0726496
0.0726569
0.0726642
0.0726715
0.0726786
0.0726857
0.0726928
0.0726997
0.0727066
0.0727135
0.0727203
0.072727
0.0727337
0.0727403
0.0727469
0.0727534
0.0727599
0.0727663
0.0727726
0.0727789
0.0727852
0.0727914
0.0727975
0.0728036
0.0728097
0.0728157
0.0728216
0.0728276
0.0728334
0.0728393
0.072845
0.0728508
0.0728565
0.0728621
0.0728678
0.0728733
0.0728789
0.0728844
0.0728898
0.0728952
0.0729006
0.072906
0.0729113
0.0729165
0.0729218
0.072927
0.0729321
0.0729373
0.0729424
0.0729474
0.0729524
0.0729574
0.0729624
0.0729673
0.0729722
0.0729771
0.072982
0.0729868
0.0729916
0.0729963
0.073001
0.0730057
0.0730104
0.0730151
0.0730197
0.0730243
0.0730288
0.0730334
0.0730379
0.0730424
0.0730469
0.0730513
0.0730557
0.0730601
0.0730645
0.0730689
0.0730732
0.0730775
0.0730818
0.073086
0.0730903
0.0730945
0.0730987
0.0731029
0.0731071
0.0731112
0.0731154
0.0731195
0.0731236
0.0731276
0.0731317
0.0731357
0.0731397
0.0731437
0.0731477
0.0731517
0.0731556
0.0731596
0.0731635
0.0731674
0.0731713
0.0731752
0.073179
0.0731829
0.0731867
0.0731905
0.0731943
0.0731981
0.0732019
0.0732056
0.0732094
0.0732131
0.0732168
0.0732205
0.0732242
0.0732279
0.0732315
0.0732352
0.0732388
0.0732425
0.0732461
0.0732497
0.0732533
0.0732569
0.0732604
0.073264
0.0732675
0.0732711
0.0732746
0.0732781
0.0732816
0.0732851
0.0732886
0.073292
0.0732955
0.0732989
0.0733024
0.0733058
0.0733092
0.0733126
0.073316
0.0733194
0.0733228
0.0733261
0.0733295
0.0733328
0.0733362
0.0733395
0.0733428
0.0733461
0.0733494
0.0733527
0.073356
0.0733592
0.0733625
0.0733658
0.073369
0.0733722
0.0733754
0.0733786
0.0733818
0.073385
0.0733882
0.0733914
0.0733945
0.0733977
0.0734008
0.0734039
0.0734071
0.0734102
0.0734133
0.0734164
0.0734194
0.0734225
0.0734256
0.0734286
0.0734316
0.0734347
0.0734377
0.0734407
0.0734437
0.0734467
0.0734496
0.0734526
0.0734555
0.0734585
0.0734614
0.0734643
0.0734672
0.0734701
0.073473
0.0734759
0.0734787
0.0734816
0.0734844
0.0734872
0.07349
0.0734928
0.0734956
0.0734983
0.0735011
0.0735038
0.0735065
0.0735092
0.0735119
0.0735146
0.0735173
0.0735199
0.0735225
0.0735251
0.0735277
0.0735303
0.0735329
0.0735354
0.073538
0.0735405
0.073543
0.0735455
0.0735479
0.0735504
0.0735528
0.0735552
0.0735576
0.07356
0.0735623
0.0735646
0.073567
0.0735693
0.0735715
0.0735738
0.073576
0.0735782
0.0735804
0.0735826
0.0735847
0.0735868
0.0735889
0.073591
0.0735931
0.0735951
0.0735971
0.0735991
0.0736011
0.073603
0.0736049
0.0736068
0.0736087
0.0736105
0.0736123
0.0736141
0.0736158
0.0736176
0.0736193
0.073621
0.0736226
0.0736242
0.0736258
0.0736274
0.0736289
0.0736304
0.0736319
0.0736334
0.0736348
0.0736362
0.0736376
0.0736389
0.0736402
0.0736415
0.0736427
0.0736439
0.0736451
0.0736462
0.0736473
0.0736484
0.0736494
0.0736505
0.0736514
0.0736524
0.0736533
0.0736542
0.073655
0.0736558
0.0736566
0.0736574
0.0736581
0.0736587
0.0736594
0.07366
0.0736606
0.0736611
0.0736616
0.0736621
0.0736626
0.0736632
0.073664
0.0736657
0.0736698
0.073678
0.0614873
0.0618997
0.0624111
0.0630134
0.0636872
0.0644048
0.0651352
0.0658502
0.0665284
0.0671565
0.0677273
0.0682388
0.0686924
0.0690921
0.0694425
0.0697491
0.0700172
0.0702516
0.0704569
0.0706372
0.0707958
0.0709359
0.0710601
0.0711705
0.0712691
0.0713575
0.0714371
0.0715089
0.0715741
0.0716335
0.0716878
0.0717375
0.0717834
0.0718257
0.071865
0.0719015
0.0719356
0.0719676
0.0719975
0.0720257
0.0720523
0.0720775
0.0721014
0.0721242
0.0721458
0.0721665
0.0721863
0.0722053
0.0722235
0.0722411
0.072258
0.0722743
0.07229
0.0723053
0.0723201
0.0723345
0.0723484
0.072362
0.0723752
0.072388
0.0724006
0.0724128
0.0724248
0.0724365
0.0724479
0.0724591
0.0724701
0.0724809
0.0724914
0.0725018
0.072512
0.0725219
0.0725318
0.0725414
0.0725509
0.0725603
0.0725695
0.0725786
0.0725875
0.0725963
0.072605
0.0726135
0.072622
0.0726303
0.0726385
0.0726466
0.0726547
0.0726626
0.0726704
0.0726781
0.0726857
0.0726933
0.0727007
0.0727081
0.0727154
0.0727226
0.0727297
0.0727368
0.0727438
0.0727507
0.0727575
0.0727643
0.072771
0.0727776
0.0727842
0.0727907
0.0727971
0.0728035
0.0728098
0.0728161
0.0728223
0.0728285
0.0728346
0.0728406
0.0728466
0.0728525
0.0728584
0.0728643
0.0728701
0.0728758
0.0728815
0.0728871
0.0728928
0.0728983
0.0729038
0.0729093
0.0729147
0.0729201
0.0729255
0.0729308
0.072936
0.0729413
0.0729464
0.0729516
0.0729567
0.0729618
0.0729668
0.0729718
0.0729768
0.0729817
0.0729866
0.0729915
0.0729963
0.0730011
0.0730059
0.0730106
0.0730153
0.07302
0.0730246
0.0730293
0.0730338
0.0730384
0.0730429
0.0730474
0.0730519
0.0730564
0.0730608
0.0730652
0.0730695
0.0730739
0.0730782
0.0730825
0.0730868
0.073091
0.0730952
0.0730994
0.0731036
0.0731078
0.0731119
0.073116
0.0731201
0.0731242
0.0731282
0.0731323
0.0731363
0.0731403
0.0731442
0.0731482
0.0731521
0.073156
0.0731599
0.0731638
0.0731677
0.0731715
0.0731754
0.0731792
0.073183
0.0731868
0.0731905
0.0731943
0.073198
0.0732017
0.0732054
0.0732091
0.0732128
0.0732165
0.0732201
0.0732238
0.0732274
0.073231
0.0732346
0.0732382
0.0732417
0.0732453
0.0732488
0.0732524
0.0732559
0.0732594
0.0732629
0.0732664
0.0732699
0.0732733
0.0732768
0.0732802
0.0732836
0.0732871
0.0732905
0.0732939
0.0732973
0.0733006
0.073304
0.0733074
0.0733107
0.0733141
0.0733174
0.0733207
0.073324
0.0733273
0.0733306
0.0733339
0.0733372
0.0733404
0.0733437
0.0733469
0.0733502
0.0733534
0.0733566
0.0733599
0.0733631
0.0733663
0.0733694
0.0733726
0.0733758
0.073379
0.0733821
0.0733853
0.0733884
0.0733915
0.0733946
0.0733978
0.0734009
0.073404
0.073407
0.0734101
0.0734132
0.0734163
0.0734193
0.0734224
0.0734254
0.0734284
0.0734315
0.0734345
0.0734375
0.0734405
0.0734435
0.0734464
0.0734494
0.0734524
0.0734553
0.0734583
0.0734612
0.0734641
0.0734671
0.07347
0.0734729
0.0734758
0.0734787
0.0734815
0.0734844
0.0734873
0.0734901
0.0734929
0.0734958
0.0734986
0.0735014
0.0735042
0.073507
0.0735098
0.0735125
0.0735153
0.073518
0.0735208
0.0735235
0.0735262
0.0735289
0.0735316
0.0735343
0.0735369
0.0735396
0.0735422
0.0735449
0.0735475
0.0735501
0.0735527
0.0735553
0.0735578
0.0735604
0.0735629
0.0735654
0.0735679
0.0735704
0.0735729
0.0735754
0.0735778
0.0735803
0.0735827
0.0735851
0.0735875
0.0735898
0.0735922
0.0735945
0.0735969
0.0735992
0.0736014
0.0736037
0.0736059
0.0736082
0.0736104
0.0736126
0.0736147
0.0736169
0.073619
0.0736211
0.0736232
0.0736253
0.0736274
0.0736294
0.0736314
0.0736334
0.0736354
0.0736373
0.0736392
0.0736411
0.073643
0.0736448
0.0736467
0.0736485
0.0736502
0.073652
0.0736537
0.0736554
0.0736571
0.0736588
0.0736604
0.073662
0.0736636
0.0736651
0.0736666
0.0736681
0.0736696
0.073671
0.0736724
0.0736738
0.0736752
0.0736765
0.0736778
0.0736791
0.0736803
0.0736815
0.0736827
0.0736838
0.0736849
0.073686
0.073687
0.0736881
0.073689
0.07369
0.0736909
0.0736918
0.0736927
0.0736935
0.0736943
0.073695
0.0736957
0.0736964
0.0736971
0.0736977
0.0736983
0.0736989
0.0736994
0.0736999
0.0737003
0.0737008
0.0737012
0.0737016
0.073702
0.0737028
0.0737044
0.0737084
0.0737166
0.0613929
0.0616395
0.0619447
0.0623136
0.0627464
0.0632374
0.0637743
0.0643413
0.0649214
0.0654994
0.0660623
0.0666003
0.0671066
0.0675774
0.0680111
0.0684076
0.0687682
0.0690949
0.0693902
0.0696567
0.069897
0.0701138
0.0703095
0.0704863
0.0706463
0.0707913
0.070923
0.0710428
0.0711521
0.0712519
0.0713433
0.0714273
0.0715045
0.0715757
0.0716415
0.0717024
0.071759
0.0718116
0.0718607
0.0719065
0.0719494
0.0719897
0.0720275
0.0720631
0.0720967
0.0721284
0.0721584
0.0721869
0.0722139
0.0722397
0.0722642
0.0722875
0.0723099
0.0723312
0.0723517
0.0723713
0.0723902
0.0724083
0.0724258
0.0724426
0.0724588
0.0724745
0.0724897
0.0725043
0.0725185
0.0725323
0.0725457
0.0725587
0.0725713
0.0725836
0.0725956
0.0726072
0.0726186
0.0726297
0.0726405
0.0726511
0.0726614
0.0726715
0.0726814
0.0726911
0.0727005
0.0727098
0.072719
0.0727279
0.0727367
0.0727453
0.0727537
0.072762
0.0727702
0.0727783
0.0727862
0.0727939
0.0728016
0.0728091
0.0728166
0.0728239
0.0728311
0.0728382
0.0728452
0.0728521
0.0728589
0.0728657
0.0728723
0.0728789
0.0728853
0.0728917
0.0728981
0.0729043
0.0729105
0.0729166
0.0729226
0.0729286
0.0729345
0.0729403
0.0729461
0.0729518
0.0729574
0.072963
0.0729686
0.0729741
0.0729795
0.0729849
0.0729902
0.0729955
0.0730007
0.0730059
0.073011
0.0730161
0.0730211
0.0730261
0.0730311
0.073036
0.0730409
0.0730457
0.0730505
0.0730553
0.07306
0.0730646
0.0730693
0.0730739
0.0730785
0.073083
0.0730875
0.073092
0.0730964
0.0731008
0.0731052
0.0731095
0.0731138
0.0731181
0.0731223
0.0731266
0.0731308
0.0731349
0.0731391
0.0731432
0.0731473
0.0731513
0.0731554
0.0731594
0.0731634
0.0731673
0.0731713
0.0731752
0.0731791
0.073183
0.0731868
0.0731907
0.0731945
0.0731983
0.073202
0.0732058
0.0732095
0.0732132
0.0732169
0.0732206
0.0732243
0.0732279
0.0732316
0.0732352
0.0732388
0.0732424
0.0732459
0.0732495
0.073253
0.0732565
0.07326
0.0732635
0.073267
0.0732705
0.0732739
0.0732773
0.0732808
0.0732842
0.0732876
0.073291
0.0732943
0.0732977
0.073301
0.0733044
0.0733077
0.073311
0.0733143
0.0733176
0.0733209
0.0733242
0.0733274
0.0733307
0.0733339
0.0733372
0.0733404
0.0733436
0.0733468
0.07335
0.0733532
0.0733564
0.0733595
0.0733627
0.0733658
0.073369
0.0733721
0.0733752
0.0733784
0.0733815
0.0733846
0.0733877
0.0733908
0.0733938
0.0733969
0.0734
0.073403
0.0734061
0.0734091
0.0734121
0.0734152
0.0734182
0.0734212
0.0734242
0.0734272
0.0734302
0.0734332
0.0734362
0.0734391
0.0734421
0.073445
0.073448
0.0734509
0.0734539
0.0734568
0.0734597
0.0734626
0.0734655
0.0734684
0.0734713
0.0734742
0.0734771
0.07348
0.0734828
0.0734857
0.0734885
0.0734914
0.0734942
0.0734971
0.0734999
0.0735027
0.0735055
0.0735083
0.0735111
0.0735139
0.0735167
0.0735194
0.0735222
0.073525
0.0735277
0.0735304
0.0735332
0.0735359
0.0735386
0.0735413
0.073544
0.0735467
0.0735494
0.0735521
0.0735547
0.0735574
0.07356
0.0735627
0.0735653
0.0735679
0.0735705
0.0735731
0.0735757
0.0735783
0.0735809
0.0735834
0.073586
0.0735885
0.0735911
0.0735936
0.0735961
0.0735986
0.073601
0.0736035
0.073606
0.0736084
0.0736108
0.0736133
0.0736157
0.0736181
0.0736204
0.0736228
0.0736252
0.0736275
0.0736298
0.0736321
0.0736344
0.0736367
0.073639
0.0736412
0.0736434
0.0736456
0.0736478
0.07365
0.0736522
0.0736543
0.0736565
0.0736586
0.0736607
0.0736627
0.0736648
0.0736668
0.0736689
0.0736709
0.0736728
0.0736748
0.0736767
0.0736787
0.0736805
0.0736824
0.0736843
0.0736861
0.0736879
0.0736897
0.0736915
0.0736932
0.073695
0.0736967
0.0736983
0.0737
0.0737016
0.0737032
0.0737048
0.0737063
0.0737079
0.0737094
0.0737108
0.0737123
0.0737137
0.0737151
0.0737165
0.0737178
0.0737191
0.0737204
0.0737217
0.0737229
0.0737241
0.0737253
0.0737264
0.0737275
0.0737286
0.0737296
0.0737306
0.0737316
0.0737326
0.0737335
0.0737344
0.0737353
0.0737361
0.0737369
0.0737377
0.0737384
0.0737391
0.0737398
0.0737404
0.073741
0.0737416
0.0737421
0.0737426
0.0737431
0.0737435
0.0737439
0.0737443
0.0737446
0.073745
0.0737453
0.0737457
0.0737463
0.0737478
0.0737517
0.0737599
0.0613427
0.0615007
0.0616908
0.0619183
0.0621878
0.0625019
0.0628597
0.0632567
0.063686
0.0641389
0.0646062
0.0650789
0.0655487
0.0660086
0.0664532
0.0668783
0.0672812
0.0676603
0.068015
0.0683453
0.0686517
0.0689353
0.0691973
0.0694391
0.0696619
0.0698673
0.0700567
0.0702313
0.0703925
0.0705413
0.0706789
0.0708062
0.0709241
0.0710335
0.0711352
0.0712297
0.0713178
0.0713999
0.0714767
0.0715485
0.0716157
0.0716787
0.071738
0.0717937
0.0718462
0.0718956
0.0719424
0.0719865
0.0720284
0.072068
0.0721056
0.0721413
0.0721753
0.0722077
0.0722385
0.072268
0.0722961
0.072323
0.0723487
0.0723734
0.072397
0.0724197
0.0724416
0.0724625
0.0724827
0.0725022
0.0725209
0.072539
0.0725565
0.0725734
0.0725897
0.0726055
0.0726208
0.0726357
0.0726501
0.072664
0.0726776
0.0726907
0.0727035
0.072716
0.0727281
0.0727399
0.0727514
0.0727627
0.0727736
0.0727843
0.0727947
0.0728049
0.0728148
0.0728246
0.0728341
0.0728434
0.0728525
0.0728615
0.0728702
0.0728788
0.0728872
0.0728954
0.0729035
0.0729115
0.0729193
0.072927
0.0729345
0.0729419
0.0729492
0.0729563
0.0729634
0.0729703
0.0729771
0.0729838
0.0729904
0.0729969
0.0730034
0.0730097
0.0730159
0.0730221
0.0730281
0.0730341
0.07304
0.0730459
0.0730516
0.0730573
0.0730629
0.0730684
0.0730739
0.0730793
0.0730846
0.0730899
0.0730951
0.0731003
0.0731054
0.0731105
0.0731154
0.0731204
0.0731253
0.0731301
0.0731349
0.0731396
0.0731443
0.073149
0.0731536