/*--------------------------------*- C++ -*----------------------------------*\
| =========                 |                                                 |
| \\      /  F ield         | OpenFOAM: The Open Source CFD Toolbox           |
|  \\    /   O peration     | Version:  2506                                  |
|   \\  /    A nd           | Website:  www.openfoam.com                      |
|    \\/     M anipulation  |                                                 |
\*---------------------------------------------------------------------------*/
FoamFile
{
    version     2.0;
    format      ascii;
    arch        "LSB;label=32;scalar=64";
    class       volScalarField;
    location    "700";
    object      p;
}
// * * * * * * * * * * * * * * * * * * * * * * * * * * * * * * * * * * * * * //

dimensions      [0 2 -2 0 0 0 0];

internalField   nonuniform List<scalar> 
131949
(
-32.7275
-25.1192
-21.4407
-20.0704
-18.8425
-17.6972
-16.7882
-16.0393
-15.3806
-14.7933
-14.2676
-13.7917
-13.3565
-12.9556
-12.5842
-12.2383
-11.9146
-11.6105
-11.3237
-11.0525
-10.7952
-10.5506
-10.3174
-10.0947
-9.88155
-9.67721
-9.481
-9.29231
-9.11061
-8.93541
-8.76628
-8.60283
-8.4447
-8.29157
-8.14315
-7.99917
-7.85939
-7.72357
-7.59152
-7.46304
-7.33795
-7.2161
-7.09732
-6.98148
-6.86845
-6.7581
-6.65031
-6.54499
-6.44203
-6.34134
-6.24282
-6.1464
-6.05199
-5.95952
-5.86892
-5.78013
-5.69309
-5.60772
-5.52398
-5.44182
-5.36118
-5.28201
-5.20427
-5.12792
-5.05291
-4.97921
-4.90677
-4.83557
-4.76556
-4.69671
-4.629
-4.56239
-4.49684
-4.43235
-4.36887
-4.30638
-4.24487
-4.18429
-4.12464
-4.06589
-4.00802
-3.951
-3.89483
-3.83948
-3.78493
-3.73116
-3.67817
-3.62592
-3.57441
-3.52363
-3.47355
-3.42416
-3.37546
-3.32742
-3.28003
-3.23328
-3.18717
-3.14167
-3.09678
-3.05248
-3.00877
-2.96563
-2.92306
-2.88104
-2.83957
-2.79863
-2.75823
-2.71834
-2.67896
-2.64009
-2.60171
-2.56382
-2.52642
-2.48948
-2.45301
-2.417
-2.38144
-2.34633
-2.31165
-2.27742
-2.2436
-2.21022
-2.17724
-2.14468
-2.11252
-2.08077
-2.0494
-2.01843
-1.98784
-1.95763
-1.9278
-1.89834
-1.86924
-1.84051
-1.81214
-1.78411
-1.75644
-1.72911
-1.70212
-1.67547
-1.64916
-1.62317
-1.59751
-1.57217
-1.54716
-1.52245
-1.49806
-1.47398
-1.45021
-1.42674
-1.40356
-1.38069
-1.3581
-1.33581
-1.3138
-1.29208
-1.27064
-1.24948
-1.22859
-1.20798
-1.18763
-1.16756
-1.14775
-1.1282
-1.10891
-1.08988
-1.0711
-1.05257
-1.0343
-1.01627
-0.998482
-0.980939
-0.963636
-0.94657
-0.929739
-0.91314
-0.896772
-0.880631
-0.864716
-0.849025
-0.833554
-0.818302
-0.803266
-0.788445
-0.773836
-0.759437
-0.745246
-0.73126
-0.717477
-0.703896
-0.690514
-0.677329
-0.664338
-0.651541
-0.638934
-0.626516
-0.614284
-0.602237
-0.590372
-0.578688
-0.567182
-0.555853
-0.544698
-0.533716
-0.522904
-0.51226
-0.501783
-0.491471
-0.481322
-0.471333
-0.461504
-0.451831
-0.442314
-0.432949
-0.423737
-0.414674
-0.405759
-0.39699
-0.388365
-0.379882
-0.37154
-0.363338
-0.355272
-0.347342
-0.339546
-0.331881
-0.324347
-0.316942
-0.309664
-0.302512
-0.295483
-0.288577
-0.281791
-0.275124
-0.268575
-0.262142
-0.255823
-0.249618
-0.243523
-0.237539
-0.231663
-0.225894
-0.220231
-0.214672
-0.209215
-0.20386
-0.198605
-0.193449
-0.18839
-0.183427
-0.178558
-0.173783
-0.1691
-0.164507
-0.160004
-0.155589
-0.151261
-0.147019
-0.142862
-0.138787
-0.134795
-0.130884
-0.127053
-0.1233
-0.119625
-0.116026
-0.112502
-0.109053
-0.105677
-0.102373
-0.0991396
-0.0959763
-0.0928818
-0.0898552
-0.0868954
-0.0840014
-0.0811722
-0.0784069
-0.0757044
-0.0730638
-0.0704841
-0.0679644
-0.0655038
-0.0631012
-0.0607559
-0.0584669
-0.0562334
-0.0540543
-0.0519289
-0.0498563
-0.0478356
-0.045866
-0.0439467
-0.0420768
-0.0402555
-0.0384819
-0.0367554
-0.0350751
-0.0334402
-0.0318499
-0.0303035
-0.0288002
-0.0273393
-0.02592
-0.0245417
-0.0232035
-0.0219048
-0.0206448
-0.0194229
-0.0182384
-0.0170906
-0.0159788
-0.0149024
-0.0138607
-0.012853
-0.0118787
-0.0109373
-0.010028
-0.00915021
-0.00830338
-0.00748689
-0.00670014
-0.00594254
-0.00521353
-0.00451252
-0.00383895
-0.00319228
-0.00257194
-0.0019774
-0.00140812
-0.000863577
-0.000343251
0.000153373
0.000626802
0.00107754
0.00150607
0.00191288
0.00229847
0.00266329
0.00300782
0.00333251
0.00363784
0.00392423
0.00419214
0.00444201
0.00467427
0.00488934
0.00508765
0.00526961
0.00543564
0.00558614
0.0057215
0.00584214
0.00594844
0.00604079
0.00611957
0.00618516
0.00623795
0.0062783
0.00630657
0.00632315
0.00632839
0.00632266
0.0063063
0.00627968
0.00624316
0.00619709
0.00614181
0.00607769
0.00600507
0.00592431
0.00583576
0.00573978
0.00563672
0.00552695
0.00541082
0.0052887
0.00516097
0.00502801
0.0048902
0.00474794
0.00460163
0.00445168
0.00429854
0.00414263
0.00398444
0.00382443
0.00366311
0.00350102
0.00333873
0.00317682
0.00301596
0.00285679
0.00270026
0.00254628
0.00240028
0.0022412
0.00217323
0.00170744
0.00362448
-25.1789
-22.614
-20.6486
-19.4947
-18.4558
-17.4719
-16.6361
-15.9242
-15.2928
-14.725
-14.2125
-13.7462
-13.3184
-12.9232
-12.5563
-12.214
-11.8933
-11.5916
-11.3069
-11.0374
-10.7816
-10.5382
-10.3061
-10.0844
-9.87206
-9.66846
-9.47291
-9.28481
-9.10363
-8.9289
-8.76019
-8.59712
-8.43934
-8.28653
-8.1384
-7.99468
-7.85514
-7.71955
-7.5877
-7.45941
-7.3345
-7.21281
-7.09419
-6.97849
-6.86559
-6.75536
-6.64769
-6.54248
-6.43962
-6.33902
-6.24059
-6.14425
-6.04992
-5.95753
-5.867
-5.77828
-5.69129
-5.60599
-5.52231
-5.4402
-5.35961
-5.28049
-5.2028
-5.12649
-5.05153
-4.97786
-4.90547
-4.8343
-4.76432
-4.69551
-4.62783
-4.56125
-4.49573
-4.43127
-4.36782
-4.30536
-4.24386
-4.18331
-4.12369
-4.06496
-4.00711
-3.95011
-3.89396
-3.83863
-3.78409
-3.73035
-3.67737
-3.62514
-3.57365
-3.52288
-3.47281
-3.42344
-3.37475
-3.32672
-3.27935
-3.23262
-3.18651
-3.14103
-3.09615
-3.05186
-3.00816
-2.96503
-2.92247
-2.88046
-2.839
-2.79807
-2.75768
-2.7178
-2.67843
-2.63957
-2.6012
-2.56332
-2.52591
-2.48898
-2.45252
-2.41652
-2.38097
-2.34586
-2.31119
-2.27696
-2.24316
-2.20977
-2.17681
-2.14425
-2.1121
-2.08035
-2.04899
-2.01802
-1.98744
-1.95724
-1.92741
-1.89795
-1.86886
-1.84013
-1.81176
-1.78374
-1.75607
-1.72875
-1.70177
-1.67512
-1.64881
-1.62283
-1.59717
-1.57184
-1.54682
-1.52212
-1.49774
-1.47366
-1.44989
-1.42642
-1.40325
-1.38038
-1.3578
-1.3355
-1.3135
-1.29178
-1.27034
-1.24919
-1.2283
-1.20769
-1.18735
-1.16728
-1.14747
-1.12792
-1.10864
-1.08961
-1.07083
-1.05231
-1.03404
-1.01601
-0.998227
-0.980687
-0.963386
-0.946323
-0.929494
-0.912898
-0.896532
-0.880394
-0.864481
-0.848792
-0.833323
-0.818074
-0.803041
-0.788222
-0.773615
-0.759218
-0.745029
-0.731046
-0.717265
-0.703686
-0.690307
-0.677124
-0.664136
-0.65134
-0.638736
-0.62632
-0.61409
-0.602045
-0.590183
-0.578501
-0.566997
-0.55567
-0.544517
-0.533537
-0.522727
-0.512086
-0.501611
-0.491301
-0.481153
-0.471167
-0.461339
-0.451669
-0.442153
-0.432791
-0.42358
-0.414519
-0.405606
-0.396839
-0.388216
-0.379735
-0.371395
-0.363194
-0.355131
-0.347202
-0.339408
-0.331745
-0.324213
-0.31681
-0.309534
-0.302383
-0.295356
-0.288451
-0.281667
-0.275002
-0.268455
-0.262023
-0.255706
-0.249502
-0.243409
-0.237426
-0.231552
-0.225784
-0.220123
-0.214565
-0.20911
-0.203757
-0.198503
-0.193348
-0.188291
-0.183329
-0.178462
-0.173688
-0.169006
-0.164415
-0.159913
-0.155499
-0.151173
-0.146932
-0.142776
-0.138703
-0.134712
-0.130802
-0.126972
-0.12322
-0.119546
-0.115948
-0.112426
-0.108978
-0.105603
-0.1023
-0.0990677
-0.0959055
-0.0928121
-0.0897866
-0.0868278
-0.0839349
-0.0811068
-0.0783425
-0.075641
-0.0730014
-0.0704227
-0.067904
-0.0654443
-0.0630428
-0.0606984
-0.0584104
-0.0561777
-0.0539996
-0.0518751
-0.0498034
-0.0477836
-0.0458149
-0.0438964
-0.0420274
-0.0402069
-0.0384342
-0.0367085
-0.035029
-0.0333949
-0.0318055
-0.0302599
-0.0287574
-0.0272972
-0.0258787
-0.0245011
-0.0231637
-0.0218657
-0.0206065
-0.0193853
-0.0182015
-0.0170544
-0.0159433
-0.0148676
-0.0138266
-0.0128196
-0.011846
-0.0109052
-0.0099965
-0.00911937
-0.00827318
-0.00745731
-0.00667117
-0.00591418
-0.00518576
-0.00448534
-0.00381236
-0.00316626
-0.00254648
-0.0019525
-0.00138378
-0.000839781
-0.000319992
0.000176102
0.000649008
0.00109923
0.00152725
0.00193356
0.00231865
0.00268298
0.00302703
0.00335125
0.0036561
0.00394203
0.00420949
0.00445891
0.00469072
0.00490535
0.00510323
0.00528476
0.00545036
0.00560044
0.00573539
0.00585562
0.00596151
0.00605346
0.00613184
0.00619704
0.00624944
0.0062894
0.0063173
0.0063335
0.00633836
0.00633225
0.00631552
0.00628853
0.00625164
0.0062052
0.00614956
0.00608507
0.00601208
0.00593095
0.00584203
0.00574568
0.00564224
0.00553209
0.00541557
0.00529307
0.00516495
0.00503158
0.00489336
0.00475067
0.00460392
0.00445353
0.00429992
0.00414353
0.00398482
0.00382428
0.00366241
0.00349972
0.0033368
0.00317421
0.00301261
0.00285266
0.0026952
0.00254048
0.00239236
0.00223659
0.00214655
0.00179575
0.0033155
-21.9687
-21.168
-19.9296
-18.8811
-17.9851
-17.1517
-16.4027
-15.7415
-15.1479
-14.6087
-14.1171
-13.6664
-13.2507
-12.8652
-12.506
-12.17
-11.8544
-11.557
-11.276
-11.0096
-10.7565
-10.5154
-10.2853
-10.0653
-9.85448
-9.65224
-9.45788
-9.27086
-9.09064
-8.91678
-8.74885
-8.58649
-8.42935
-8.27712
-8.12953
-7.9863
-7.84721
-7.71203
-7.58057
-7.45263
-7.32805
-7.20666
-7.08832
-6.97288
-6.86022
-6.75023
-6.64277
-6.53776
-6.43509
-6.33467
-6.2364
-6.14022
-6.04604
-5.95379
-5.8634
-5.7748
-5.68793
-5.60274
-5.51916
-5.43715
-5.35666
-5.27763
-5.20003
-5.12381
-5.04892
-4.97533
-4.90301
-4.83191
-4.762
-4.69325
-4.62563
-4.5591
-4.49365
-4.42923
-4.36583
-4.30342
-4.24198
-4.18147
-4.12189
-4.0632
-4.00539
-3.94843
-3.89232
-3.83702
-3.78252
-3.72881
-3.67586
-3.62367
-3.5722
-3.52146
-3.47143
-3.42208
-3.37342
-3.32542
-3.27807
-3.23136
-3.18528
-3.13981
-3.09495
-3.05069
-3.00701
-2.9639
-2.92136
-2.87937
-2.83792
-2.79702
-2.75664
-2.71677
-2.67742
-2.63857
-2.60022
-2.56235
-2.52496
-2.48805
-2.4516
-2.41561
-2.38007
-2.34498
-2.31032
-2.2761
-2.24231
-2.20894
-2.17598
-2.14344
-2.1113
-2.07956
-2.04821
-2.01725
-1.98668
-1.95648
-1.92667
-1.89722
-1.86814
-1.83941
-1.81105
-1.78304
-1.75538
-1.72806
-1.70109
-1.67445
-1.64815
-1.62217
-1.59652
-1.5712
-1.54619
-1.5215
-1.49712
-1.47305
-1.44928
-1.42582
-1.40265
-1.37979
-1.35721
-1.33493
-1.31293
-1.29122
-1.26979
-1.24863
-1.22775
-1.20715
-1.18681
-1.16675
-1.14694
-1.1274
-1.10812
-1.0891
-1.07033
-1.05181
-1.03354
-1.01552
-0.997741
-0.980206
-0.96291
-0.945851
-0.929027
-0.912436
-0.896075
-0.879941
-0.864033
-0.848349
-0.832885
-0.81764
-0.802611
-0.787797
-0.773195
-0.758802
-0.744618
-0.730638
-0.716863
-0.703288
-0.689912
-0.676734
-0.66375
-0.650959
-0.638358
-0.625947
-0.613721
-0.60168
-0.589822
-0.578144
-0.566645
-0.555321
-0.544173
-0.533196
-0.522391
-0.511753
-0.501282
-0.490976
-0.480833
-0.47085
-0.461026
-0.451359
-0.441848
-0.432489
-0.423282
-0.414225
-0.405315
-0.396552
-0.387932
-0.379455
-0.371119
-0.362922
-0.354861
-0.346936
-0.339145
-0.331486
-0.323958
-0.316558
-0.309285
-0.302137
-0.295114
-0.288212
-0.281431
-0.274769
-0.268225
-0.261797
-0.255483
-0.249281
-0.243192
-0.237212
-0.23134
-0.225576
-0.219917
-0.214362
-0.20891
-0.20356
-0.198309
-0.193157
-0.188102
-0.183143
-0.178278
-0.173507
-0.168828
-0.164239
-0.15974
-0.155329
-0.151005
-0.146766
-0.142612
-0.138542
-0.134553
-0.130646
-0.126818
-0.123069
-0.119397
-0.115802
-0.112282
-0.108836
-0.105463
-0.102162
-0.0989319
-0.0957718
-0.0926805
-0.089657
-0.0867003
-0.0838094
-0.0809833
-0.0782209
-0.0755214
-0.0728837
-0.070307
-0.0677902
-0.0653324
-0.0629327
-0.0605901
-0.0583039
-0.056073
-0.0538967
-0.0517739
-0.049704
-0.0476859
-0.0457189
-0.0438021
-0.0419347
-0.0401159
-0.0383448
-0.0366207
-0.0349428
-0.0333102
-0.0317223
-0.0301782
-0.0286772
-0.0272186
-0.0258016
-0.0244254
-0.0230894
-0.0217929
-0.0205351
-0.0193153
-0.0181328
-0.0169871
-0.0158773
-0.0148029
-0.0137632
-0.0127575
-0.0117851
-0.0108456
-0.00993816
-0.00906226
-0.00821727
-0.00740259
-0.00661763
-0.0058618
-0.00513452
-0.00443523
-0.00376336
-0.00311836
-0.00249967
-0.00190676
-0.00133909
-0.000796139
-0.000277378
0.000217702
0.000689607
0.00113884
0.00156589
0.00197124
0.00235538
0.00271878
0.0030619
0.00338521
0.00368917
0.00397421
0.0042408
0.00448935
0.00472031
0.0049341
0.00513114
0.00531186
0.00547665
0.00562592
0.00576009
0.00587953
0.00598465
0.00607584
0.00615346
0.00621792
0.00626957
0.0063088
0.00633597
0.00635144
0.00635559
0.00634876
0.00633132
0.00630363
0.00626604
0.00621889
0.00616255
0.00609736
0.00602367
0.00594184
0.00585222
0.00575515
0.005651
0.00554013
0.00542288
0.00529964
0.00517076
0.00503663
0.00489762
0.00475413
0.00460655
0.00445531
0.00430081
0.0041435
0.00398384
0.00382229
0.00365936
0.00349555
0.00333143
0.00316757
0.00300459
0.00284313
0.00268401
0.0025275
0.00237698
0.00221983
0.00212157
0.00178304
0.00323027
-20.0925
-19.7291
-18.9422
-18.1373
-17.416
-16.7292
-16.0817
-15.4882
-14.9446
-14.4434
-13.9803
-13.5514
-13.1528
-12.7809
-12.4326
-12.1056
-11.7975
-11.5063
-11.2305
-10.9686
-10.7193
-10.4816
-10.2544
-10.0369
-9.82836
-9.6281
-9.43551
-9.25006
-9.07126
-8.89868
-8.7319
-8.57059
-8.4144
-8.26304
-8.11624
-7.97374
-7.83532
-7.70076
-7.56986
-7.44245
-7.31835
-7.19742
-7.0795
-6.96445
-6.85216
-6.74251
-6.63538
-6.53066
-6.42827
-6.32812
-6.23011
-6.13416
-6.0402
-5.94816
-5.85796
-5.76955
-5.68286
-5.59784
-5.51442
-5.43256
-5.35221
-5.27333
-5.19585
-5.11975
-5.04499
-4.97151
-4.8993
-4.8283
-4.75849
-4.68983
-4.6223
-4.55586
-4.49049
-4.42616
-4.36283
-4.3005
-4.23912
-4.17869
-4.11917
-4.06054
-4.00279
-3.9459
-3.88984
-3.83459
-3.78015
-3.72648
-3.67359
-3.62144
-3.57002
-3.51932
-3.46933
-3.42003
-3.3714
-3.32344
-3.27613
-3.22945
-3.18341
-3.13798
-3.09315
-3.04892
-3.00526
-2.96219
-2.91967
-2.87771
-2.8363
-2.79541
-2.75506
-2.71522
-2.6759
-2.63707
-2.59874
-2.56089
-2.52353
-2.48664
-2.45021
-2.41424
-2.37872
-2.34364
-2.30901
-2.27481
-2.24103
-2.20768
-2.17474
-2.14221
-2.11008
-2.07836
-2.04702
-2.01608
-1.98552
-1.95534
-1.92554
-1.8961
-1.86703
-1.83833
-1.80998
-1.78198
-1.75433
-1.72703
-1.70006
-1.67344
-1.64714
-1.62118
-1.59554
-1.57023
-1.54523
-1.52055
-1.49618
-1.47212
-1.44836
-1.42491
-1.40175
-1.37889
-1.35633
-1.33405
-1.31207
-1.29036
-1.26894
-1.24779
-1.22692
-1.20633
-1.186
-1.16594
-1.14615
-1.12661
-1.10734
-1.08832
-1.06956
-1.05105
-1.03279
-1.01478
-0.997005
-0.979477
-0.962189
-0.945137
-0.928321
-0.911736
-0.895382
-0.879256
-0.863355
-0.847677
-0.83222
-0.816982
-0.80196
-0.787153
-0.772557
-0.758172
-0.743994
-0.730021
-0.716252
-0.702684
-0.689315
-0.676142
-0.663165
-0.65038
-0.637786
-0.625381
-0.613162
-0.601128
-0.589275
-0.577604
-0.56611
-0.554793
-0.543651
-0.53268
-0.521881
-0.511249
-0.500784
-0.490484
-0.480346
-0.470369
-0.460551
-0.45089
-0.441384
-0.432032
-0.42283
-0.413779
-0.404875
-0.396117
-0.387503
-0.379031
-0.3707
-0.362508
-0.354453
-0.346534
-0.338748
-0.331094
-0.32357
-0.316175
-0.308908
-0.301765
-0.294746
-0.28785
-0.281074
-0.274417
-0.267877
-0.261453
-0.255144
-0.248947
-0.242862
-0.236887
-0.23102
-0.22526
-0.219606
-0.214055
-0.208607
-0.203261
-0.198014
-0.192866
-0.187816
-0.182861
-0.178
-0.173233
-0.168557
-0.163973
-0.159477
-0.15507
-0.15075
-0.146515
-0.142365
-0.138298
-0.134313
-0.130409
-0.126585
-0.122839
-0.119171
-0.115579
-0.112062
-0.10862
-0.10525
-0.101952
-0.0987256
-0.0955687
-0.0924806
-0.0894602
-0.0865066
-0.0836188
-0.0807957
-0.0780363
-0.0753397
-0.072705
-0.0701311
-0.0676172
-0.0651622
-0.0627653
-0.0604255
-0.058142
-0.0559139
-0.0537402
-0.0516201
-0.0495528
-0.0475373
-0.0455728
-0.0436586
-0.0417937
-0.0399773
-0.0382087
-0.036487
-0.0348115
-0.0331813
-0.0315957
-0.0300539
-0.0285552
-0.0270989
-0.0256841
-0.0243101
-0.0229763
-0.0216819
-0.0204262
-0.0192085
-0.0180282
-0.0168845
-0.0157767
-0.0147043
-0.0136665
-0.0126628
-0.0116924
-0.0107547
-0.00984916
-0.0089751
-0.00813194
-0.00731906
-0.00653588
-0.00578181
-0.00505626
-0.00435868
-0.0036885
-0.00304516
-0.00242812
-0.00183683
-0.00127076
-0.00072938
-0.000212176
0.000281369
0.00075176
0.0011995
0.00162507
0.00202897
0.00241168
0.00277366
0.00311539
0.00343732
0.00373992
0.00402362
0.00428888
0.00453613
0.0047658
0.00497832
0.00517411
0.00535358
0.00551714
0.00566521
0.00579818
0.00591644
0.00602039
0.00611042
0.0061869
0.00625022
0.00630075
0.00633887
0.00636493
0.00637931
0.00638237
0.00637447
0.00635596
0.0063272
0.00628854
0.00624034
0.00618294
0.00611669
0.00604194
0.00595905
0.00586836
0.00577023
0.005665
0.00555304
0.00543469
0.00531033
0.00518032
0.00504503
0.00490484
0.00476014
0.00461132
0.00445879
0.00430296
0.00414428
0.00398317
0.00382011
0.00365559
0.00349011
0.0033242
0.00315843
0.0029934
0.00282972
0.00266816
0.00250899
0.00235533
0.00219525
0.00209073
0.0017544
0.00315946
-18.6932
-18.4969
-18.0071
-17.4194
-16.8419
-16.273
-15.7187
-15.1941
-14.7027
-14.2425
-13.8115
-13.408
-13.0296
-12.6741
-12.3393
-12.0233
-11.7244
-11.4411
-11.1719
-10.9157
-10.6713
-10.4377
-10.2143
-10
-9.79436
-9.59665
-9.40634
-9.22293
-9.04595
-8.87501
-8.70973
-8.54977
-8.39481
-8.24458
-8.0988
-7.95725
-7.8197
-7.68594
-7.55578
-7.42906
-7.3056
-7.18525
-7.06788
-6.95335
-6.84154
-6.73233
-6.62562
-6.5213
-6.41928
-6.31947
-6.22179
-6.12615
-6.03248
-5.94071
-5.85078
-5.76261
-5.67616
-5.59135
-5.50815
-5.42649
-5.34633
-5.26762
-5.19032
-5.11439
-5.03977
-4.96645
-4.89438
-4.82352
-4.75384
-4.68531
-4.61789
-4.55157
-4.48631
-4.42208
-4.35886
-4.29662
-4.23534
-4.17499
-4.11556
-4.05702
-3.99935
-3.94253
-3.88654
-3.83137
-3.77699
-3.7234
-3.67056
-3.61847
-3.56712
-3.51648
-3.46654
-3.41729
-3.36872
-3.32081
-3.27354
-3.22692
-3.18092
-3.13553
-3.09075
-3.04656
-3.00295
-2.95991
-2.91743
-2.87551
-2.83413
-2.79328
-2.75296
-2.71316
-2.67386
-2.63507
-2.59677
-2.55895
-2.52162
-2.48475
-2.44835
-2.41241
-2.37691
-2.34186
-2.30725
-2.27308
-2.23932
-2.20599
-2.17307
-2.14057
-2.10846
-2.07676
-2.04545
-2.01452
-1.98398
-1.95382
-1.92404
-1.89462
-1.86557
-1.83688
-1.80855
-1.78056
-1.75293
-1.72564
-1.69869
-1.67208
-1.64581
-1.61986
-1.59423
-1.56893
-1.54395
-1.51928
-1.49492
-1.47088
-1.44713
-1.42369
-1.40055
-1.37771
-1.35515
-1.33289
-1.31091
-1.28922
-1.26781
-1.24667
-1.22582
-1.20523
-1.18491
-1.16487
-1.14508
-1.12556
-1.1063
-1.08729
-1.06854
-1.05004
-1.03179
-1.01378
-0.996024
-0.978505
-0.961227
-0.944185
-0.927378
-0.910803
-0.894458
-0.878341
-0.86245
-0.846781
-0.831334
-0.816105
-0.801092
-0.786294
-0.771707
-0.75733
-0.743161
-0.729197
-0.715437
-0.701878
-0.688517
-0.675354
-0.662385
-0.649609
-0.637023
-0.624626
-0.612416
-0.60039
-0.588546
-0.576882
-0.565397
-0.554088
-0.542954
-0.531992
-0.5212
-0.510576
-0.500119
-0.489827
-0.479697
-0.469728
-0.459918
-0.450265
-0.440766
-0.431421
-0.422227
-0.413183
-0.404286
-0.395536
-0.386929
-0.378465
-0.370141
-0.361956
-0.353908
-0.345996
-0.338217
-0.33057
-0.323053
-0.315665
-0.308404
-0.301268
-0.294256
-0.287366
-0.280596
-0.273946
-0.267412
-0.260995
-0.254692
-0.248501
-0.242422
-0.236453
-0.230592
-0.224838
-0.219189
-0.213645
-0.208203
-0.202862
-0.197621
-0.192479
-0.187433
-0.182484
-0.177629
-0.172867
-0.168197
-0.163617
-0.159127
-0.154725
-0.150409
-0.14618
-0.142034
-0.137972
-0.133992
-0.130093
-0.126273
-0.122532
-0.118869
-0.115281
-0.111769
-0.108331
-0.104966
-0.101673
-0.0984501
-0.0952974
-0.0922136
-0.0891974
-0.0862479
-0.0833641
-0.0805451
-0.0777897
-0.0750971
-0.0724663
-0.0698963
-0.0673861
-0.0649349
-0.0625418
-0.0602057
-0.0579259
-0.0557013
-0.0535312
-0.0514147
-0.0493508
-0.0473388
-0.0453777
-0.0434669
-0.0416053
-0.0397923
-0.0380269
-0.0363084
-0.0346361
-0.0330091
-0.0314266
-0.0298879
-0.0283923
-0.0269389
-0.0255271
-0.0241561
-0.0228251
-0.0215336
-0.0202807
-0.0190659
-0.0178883
-0.0167473
-0.0156423
-0.0145725
-0.0135374
-0.0125362
-0.0115684
-0.0106332
-0.00973019
-0.00885861
-0.00801788
-0.00720741
-0.0064266
-0.00567487
-0.00495164
-0.00425634
-0.00358841
-0.00294729
-0.00233244
-0.00174331
-0.00117937
-0.000640101
-0.000124973
0.000366524
0.000834895
0.00128064
0.00170425
0.00210621
0.002487
0.00284709
0.00318696
0.00350706
0.00380784
0.00408976
0.00435325
0.00459876
0.00482671
0.00503753
0.00523164
0.00540945
0.00557138
0.00571784
0.00584921
0.00596589
0.00606828
0.00615677
0.00623172
0.00629353
0.00634257
0.0063792
0.00640379
0.00641672
0.00641833
0.00640899
0.00638905
0.00635887
0.00631879
0.00626917
0.00621036
0.00614271
0.00606656
0.00598225
0.00589015
0.00579059
0.00568392
0.00557051
0.0054507
0.00532486
0.00519334
0.00505651
0.00491475
0.00476845
0.00461798
0.00446374
0.00430616
0.00414564
0.00398263
0.00381758
0.00365096
0.00348326
0.003315
0.00314673
0.00297901
0.00281244
0.00264773
0.00248513
0.00232761
0.00216369
0.00205302
0.00171767
0.00307491
-17.6039
-17.4879
-17.1663
-16.7321
-16.2709
-15.801
-15.3304
-14.8719
-14.4327
-14.0143
-13.6172
-13.241
-12.8849
-12.5477
-12.2281
-11.9249
-11.6367
-11.3625
-11.1011
-10.8515
-10.6129
-10.3845
-10.1654
-9.95508
-9.75287
-9.55823
-9.37066
-9.1897
-9.01494
-8.84599
-8.68252
-8.5242
-8.37074
-8.22188
-8.07736
-7.93695
-7.80046
-7.66768
-7.53843
-7.41254
-7.28986
-7.17024
-7.05354
-6.93964
-6.82841
-6.71975
-6.61356
-6.50972
-6.40815
-6.30877
-6.21149
-6.11623
-6.02292
-5.93149
-5.84187
-5.75401
-5.66784
-5.58331
-5.50037
-5.41895
-5.33903
-5.26054
-5.18346
-5.10772
-5.0333
-4.96016
-4.88827
-4.81757
-4.74806
-4.67968
-4.61242
-4.54623
-4.48111
-4.41701
-4.35391
-4.29179
-4.23063
-4.17039
-4.11107
-4.05263
-3.99506
-3.93833
-3.88244
-3.82736
-3.77306
-3.71955
-3.6668
-3.61479
-3.5635
-3.51294
-3.46307
-3.41389
-3.36538
-3.31753
-3.27033
-3.22376
-3.17782
-3.13249
-3.08776
-3.04362
-3.00006
-2.95707
-2.91464
-2.87276
-2.83143
-2.79063
-2.75035
-2.71059
-2.67133
-2.63258
-2.59431
-2.55653
-2.51923
-2.4824
-2.44603
-2.41012
-2.37466
-2.33964
-2.30506
-2.27092
-2.23719
-2.20389
-2.171
-2.13852
-2.10644
-2.07476
-2.04348
-2.01258
-1.98206
-1.95192
-1.92216
-1.89277
-1.86374
-1.83507
-1.80676
-1.7788
-1.75118
-1.72391
-1.69699
-1.67039
-1.64413
-1.6182
-1.5926
-1.56731
-1.54235
-1.5177
-1.49336
-1.46933
-1.4456
-1.42217
-1.39905
-1.37622
-1.35368
-1.33143
-1.30947
-1.28779
-1.26639
-1.24527
-1.22443
-1.20386
-1.18356
-1.16352
-1.14375
-1.12424
-1.10499
-1.086
-1.06726
-1.04877
-1.03053
-1.01254
-0.994795
-0.977289
-0.960022
-0.942993
-0.926198
-0.909635
-0.893302
-0.877197
-0.861317
-0.84566
-0.830224
-0.815006
-0.800005
-0.785218
-0.770642
-0.756277
-0.742119
-0.728166
-0.714416
-0.700868
-0.687518
-0.674366
-0.661408
-0.648642
-0.636067
-0.623681
-0.611481
-0.599465
-0.587632
-0.575979
-0.564504
-0.553205
-0.542081
-0.531129
-0.520347
-0.509734
-0.499287
-0.489004
-0.478884
-0.468925
-0.459124
-0.449481
-0.439992
-0.430656
-0.421472
-0.412437
-0.40355
-0.394808
-0.386211
-0.377756
-0.369441
-0.361265
-0.353226
-0.345322
-0.337552
-0.329913
-0.322405
-0.315026
-0.307773
-0.300645
-0.293642
-0.28676
-0.279998
-0.273356
-0.26683
-0.260421
-0.254125
-0.247943
-0.241871
-0.23591
-0.230056
-0.224309
-0.218668
-0.213131
-0.207696
-0.202362
-0.197128
-0.191993
-0.186954
-0.182012
-0.177163
-0.172408
-0.167744
-0.163171
-0.158688
-0.154292
-0.149983
-0.145759
-0.14162
-0.137564
-0.13359
-0.129697
-0.125883
-0.122148
-0.11849
-0.114909
-0.111402
-0.107969
-0.10461
-0.101322
-0.0981049
-0.0949576
-0.091879
-0.088868
-0.0859237
-0.083045
-0.080231
-0.0774807
-0.074793
-0.0721671
-0.0696019
-0.0670965
-0.0646501
-0.0622616
-0.0599302
-0.0576549
-0.0554349
-0.0532693
-0.0511571
-0.0490977
-0.04709
-0.0451332
-0.0432265
-0.0413692
-0.0395603
-0.037799
-0.0360846
-0.0344162
-0.0327932
-0.0312146
-0.0296798
-0.0281879
-0.0267383
-0.0253302
-0.0239629
-0.0226356
-0.0213477
-0.0200984
-0.018887
-0.0177129
-0.0165753
-0.0154736
-0.0144072
-0.0133754
-0.0123775
-0.0114129
-0.0104809
-0.00958098
-0.00871249
-0.00787481
-0.00706735
-0.00628952
-0.00554072
-0.00482039
-0.00412794
-0.00346283
-0.0028245
-0.00221239
-0.00162597
-0.0010647
-0.000528068
-1.55391e-05
0.000473393
0.000939233
0.00138248
0.00180363
0.00220316
0.00258155
0.00293929
0.00327682
0.00359462
0.00389313
0.00417281
0.00443409
0.00467741
0.00490321
0.00511191
0.00530392
0.00547966
0.00563955
0.00578398
0.00591335
0.00602806
0.0061285
0.00621505
0.0062881
0.00634801
0.00639518
0.00642995
0.00645271
0.00646381
0.00646361
0.00645247
0.00643074
0.00639878
0.00635694
0.00630555
0.00624498
0.00617557
0.00609765
0.00601159
0.00591771
0.00581637
0.00570792
0.0055927
0.00547106
0.00534337
0.00520997
0.00507123
0.00492752
0.00477921
0.00462668
0.00447033
0.00431056
0.00414777
0.0039824
0.00381488
0.00364566
0.00347523
0.00330408
0.00313272
0.00296171
0.0027916
0.00262308
0.00245635
0.00229426
0.00212575
0.00200832
0.00167357
0.00297542
-16.7141
-16.637
-16.4118
-16.0855
-15.7179
-15.3303
-14.9319
-14.5337
-14.144
-13.7666
-13.4033
-13.0552
-12.7224
-12.4047
-12.1016
-11.8122
-11.5359
-11.2717
-11.019
-10.777
-10.545
-10.3223
-10.1083
-9.90249
-9.70426
-9.51316
-9.32876
-9.15065
-8.97845
-8.81183
-8.65046
-8.49406
-8.34235
-8.19508
-8.05203
-7.91297
-7.77772
-7.64609
-7.5179
-7.39299
-7.27122
-7.15245
-7.03654
-6.92338
-6.81285
-6.70483
-6.59924
-6.49598
-6.39494
-6.29606
-6.19926
-6.10444
-6.01156
-5.92053
-5.83129
-5.74378
-5.65796
-5.57375
-5.49111
-5.40999
-5.33034
-5.25211
-5.17528
-5.09978
-5.02559
-4.95267
-4.88098
-4.81049
-4.74116
-4.67297
-4.60588
-4.53987
-4.4749
-4.41096
-4.34801
-4.28603
-4.225
-4.1649
-4.1057
-4.04739
-3.98993
-3.93332
-3.87754
-3.82256
-3.76837
-3.71496
-3.6623
-3.61038
-3.55918
-3.5087
-3.45892
-3.40982
-3.36138
-3.31361
-3.26648
-3.21998
-3.17411
-3.12884
-3.08418
-3.0401
-2.9966
-2.95367
-2.9113
-2.86948
-2.82819
-2.78744
-2.74722
-2.7075
-2.66829
-2.62959
-2.59137
-2.55363
-2.51637
-2.47959
-2.44326
-2.40739
-2.37196
-2.33698
-2.30244
-2.26833
-2.23464
-2.20137
-2.16851
-2.13606
-2.10402
-2.07237
-2.04111
-2.01024
-1.97975
-1.94965
-1.91991
-1.89054
-1.86154
-1.8329
-1.80461
-1.77667
-1.74908
-1.72184
-1.69493
-1.66836
-1.64213
-1.61622
-1.59063
-1.56537
-1.54042
-1.51579
-1.49147
-1.46746
-1.44376
-1.42035
-1.39724
-1.37443
-1.35191
-1.32968
-1.30774
-1.28608
-1.2647
-1.24359
-1.22277
-1.20221
-1.18193
-1.16191
-1.14215
-1.12266
-1.10342
-1.08445
-1.06572
-1.04725
-1.02903
-1.01105
-0.993318
-0.975827
-0.958575
-0.941559
-0.924779
-0.90823
-0.891911
-0.87582
-0.859954
-0.844311
-0.828889
-0.813685
-0.798697
-0.783924
-0.769362
-0.75501
-0.740865
-0.726926
-0.713189
-0.699654
-0.686318
-0.673178
-0.660233
-0.64748
-0.634918
-0.622544
-0.610357
-0.598354
-0.586533
-0.574892
-0.56343
-0.552143
-0.541031
-0.530091
-0.519322
-0.50872
-0.498285
-0.488015
-0.477907
-0.467959
-0.45817
-0.448538
-0.439061
-0.429736
-0.420563
-0.41154
-0.402663
-0.393933
-0.385347
-0.376902
-0.368598
-0.360433
-0.352405
-0.344512
-0.336752
-0.329124
-0.321626
-0.314257
-0.307014
-0.299896
-0.292902
-0.28603
-0.279279
-0.272646
-0.26613
-0.25973
-0.253444
-0.247271
-0.241208
-0.235256
-0.229411
-0.223673
-0.218041
-0.212512
-0.207086
-0.201761
-0.196535
-0.191408
-0.186378
-0.181444
-0.176603
-0.171856
-0.1672
-0.162635
-0.158159
-0.153771
-0.14947
-0.145254
-0.141122
-0.137073
-0.133106
-0.12922
-0.125414
-0.121686
-0.118035
-0.11446
-0.11096
-0.107534
-0.104181
-0.1009
-0.0976894
-0.0945485
-0.0914762
-0.0884716
-0.0855335
-0.082661
-0.0798531
-0.0771087
-0.074427
-0.0718069
-0.0692476
-0.066748
-0.0643072
-0.0619243
-0.0595985
-0.0573287
-0.0551142
-0.0529539
-0.0508471
-0.0487929
-0.0467904
-0.0448388
-0.0429372
-0.0410849
-0.0392809
-0.0375246
-0.0358151
-0.0341515
-0.0325332
-0.0309593
-0.0294291
-0.0279419
-0.0264968
-0.0250932
-0.0237303
-0.0224074
-0.0211238
-0.0198787
-0.0186716
-0.0175016
-0.0163682
-0.0152706
-0.0142082
-0.0131803
-0.0121863
-0.0112255
-0.0102974
-0.00940125
-0.00853648
-0.00770247
-0.00689863
-0.00612437
-0.00537911
-0.00466226
-0.00397325
-0.00331153
-0.00267654
-0.00206773
-0.00148457
-0.000926519
-0.000393052
0.00011635
0.000602197
0.00106499
0.00150524
0.00192343
0.00232004
0.00269555
0.00305044
0.00338517
0.0037002
0.00399598
0.00427296
0.00453159
0.00477229
0.0049955
0.00520164
0.00539113
0.00556438
0.0057218
0.0058638
0.00599077
0.00610311
0.0062012
0.00628543
0.00635618
0.00641383
0.00645874
0.00649129
0.00651184
0.00652074
0.00651837
0.00650507
0.0064812
0.0064471
0.00640313
0.00634963
0.00628694
0.00621541
0.00613539
0.0060472
0.0059512
0.00584773
0.00573713
0.00561975
0.00549593
0.00536601
0.00523037
0.00508934
0.00494329
0.0047926
0.00463762
0.00447875
0.00431637
0.00415088
0.0039827
0.00381224
0.00363995
0.00346628
0.00329171
0.00311672
0.00294184
0.00276758
0.0025946
0.00242309
0.00225574
0.00208194
0.00195691
0.0016227
0.00286076
-15.9591
-15.9034
-15.7379
-15.4873
-15.1923
-14.8712
-14.5333
-14.1883
-13.8441
-13.5054
-13.175
-12.8547
-12.5455
-12.2479
-11.9618
-11.6871
-11.4233
-11.1701
-10.9269
-10.6931
-10.4683
-10.2519
-10.0436
-9.84269
-9.6489
-9.46177
-9.28092
-9.10602
-8.93672
-8.77272
-8.61373
-8.4595
-8.30977
-8.16432
-8.02293
-7.88541
-7.75158
-7.62125
-7.49427
-7.37049
-7.24976
-7.13196
-7.01696
-6.90464
-6.7949
-6.68762
-6.58273
-6.48011
-6.37969
-6.28139
-6.18513
-6.09083
-5.99843
-5.90785
-5.81905
-5.73196
-5.64652
-5.56268
-5.48039
-5.39961
-5.32028
-5.24236
-5.16581
-5.09059
-5.01667
-4.94399
-4.87255
-4.80228
-4.73318
-4.66519
-4.59831
-4.53249
-4.46771
-4.40394
-4.34116
-4.27935
-4.21848
-4.15853
-4.09948
-4.0413
-3.98398
-3.92751
-3.87185
-3.81699
-3.76292
-3.70962
-3.65707
-3.60525
-3.55416
-3.50378
-3.45409
-3.40508
-3.35674
-3.30905
-3.26201
-3.21559
-3.16979
-3.12461
-3.08001
-3.03601
-2.99258
-2.94972
-2.90741
-2.86565
-2.82443
-2.78374
-2.74357
-2.70391
-2.66476
-2.6261
-2.58794
-2.55025
-2.51305
-2.4763
-2.44002
-2.4042
-2.36882
-2.33388
-2.29938
-2.26531
-2.23166
-2.19843
-2.16561
-2.1332
-2.10119
-2.06958
-2.03835
-2.00752
-1.97707
-1.94699
-1.91728
-1.88795
-1.85898
-1.83036
-1.8021
-1.7742
-1.74663
-1.71942
-1.69254
-1.666
-1.63978
-1.6139
-1.58834
-1.5631
-1.53818
-1.51357
-1.48928
-1.46529
-1.4416
-1.41822
-1.39514
-1.37234
-1.34985
-1.32764
-1.30571
-1.28407
-1.26271
-1.24163
-1.22082
-1.20029
-1.18002
-1.16002
-1.14028
-1.12081
-1.10159
-1.08263
-1.06393
-1.04547
-1.02727
-1.00931
-0.991592
-0.974117
-0.956882
-0.939884