/*--------------------------------*- C++ -*----------------------------------*\
| =========                 |                                                 |
| \\      /  F ield         | OpenFOAM: The Open Source CFD Toolbox           |
|  \\    /   O peration     | Version:  2506                                  |
|   \\  /    A nd           | Website:  www.openfoam.com                      |
|    \\/     M anipulation  |                                                 |
\*---------------------------------------------------------------------------*/
FoamFile
{
    version     2.0;
    format      ascii;
    arch        "LSB;label=32;scalar=64";
    class       surfaceScalarField;
    location    "700";
    object      phi;
}
// * * * * * * * * * * * * * * * * * * * * * * * * * * * * * * * * * * * * * //

dimensions      [0 3 -1 0 0 0 0];

oriented        oriented;

internalField   nonuniform List<scalar> 
266147
(
0.00237347
0.000117012
0.0023151
5.83705e-05
0.00227865
3.64522e-05
0.00225492
2.37331e-05
0.0022381
1.6815e-05
0.00222486
1.32436e-05
0.00221383
1.10297e-05
0.00220438
9.44868e-06
0.0021961
8.28094e-06
0.00218871
7.38669e-06
0.00218204
6.67223e-06
0.00217596
6.08586e-06
0.00217036
5.596e-06
0.00216518
5.18029e-06
0.00216036
4.82266e-06
0.00215585
4.51154e-06
0.00215161
4.23831e-06
0.00214761
3.99634e-06
0.00214383
3.78048e-06
0.00214024
3.58664e-06
0.00213683
3.41157e-06
0.00213358
3.25261e-06
0.00213047
3.1076e-06
0.0021275
2.97473e-06
0.00212464
2.85252e-06
0.0021219
2.73969e-06
0.00211927
2.63518e-06
0.00211673
2.53808e-06
0.00211428
2.4476e-06
0.00211192
2.36306e-06
0.00210964
2.28389e-06
0.00210743
2.20957e-06
0.00210529
2.13964e-06
0.00210321
2.07373e-06
0.0021012
2.01147e-06
0.00209925
1.95256e-06
0.00209735
1.89672e-06
0.00209551
1.84371e-06
0.00209372
1.79332e-06
0.00209197
1.74533e-06
0.00209027
1.69957e-06
0.00208862
1.65589e-06
0.002087
1.61414e-06
0.00208543
1.57417e-06
0.00208389
1.53589e-06
0.00208239
1.49916e-06
0.00208093
1.4639e-06
0.0020795
1.43001e-06
0.0020781
1.39741e-06
0.00207673
1.36602e-06
0.0020754
1.33577e-06
0.00207409
1.30659e-06
0.00207281
1.27843e-06
0.00207156
1.25121e-06
0.00207034
1.22491e-06
0.00206914
1.19945e-06
0.00206796
1.17481e-06
0.00206681
1.15094e-06
0.00206568
1.12779e-06
0.00206458
1.10534e-06
0.0020635
1.08354e-06
0.00206243
1.06238e-06
0.00206139
1.0418e-06
0.00206037
1.0218e-06
0.00205937
1.00234e-06
0.00205838
9.83403e-07
0.00205742
9.64957e-07
0.00205647
9.46984e-07
0.00205554
9.29463e-07
0.00205463
9.12376e-07
0.00205373
8.95703e-07
0.00205286
8.79428e-07
0.00205199
8.63534e-07
0.00205114
8.48005e-07
0.00205031
8.32828e-07
0.00204949
8.17987e-07
0.00204869
8.03471e-07
0.0020479
7.89265e-07
0.00204712
7.7536e-07
0.00204636
7.61742e-07
0.00204561
7.48402e-07
0.00204488
7.35329e-07
0.00204416
7.22514e-07
0.00204345
7.09946e-07
0.00204275
6.97618e-07
0.00204206
6.85521e-07
0.00204139
6.73647e-07
0.00204073
6.61988e-07
0.00204008
6.50537e-07
0.00203944
6.39286e-07
0.00203881
6.28229e-07
0.00203819
6.1736e-07
0.00203759
6.06672e-07
0.00203699
5.9616e-07
0.0020364
5.85817e-07
0.00203583
5.75639e-07
0.00203526
5.65619e-07
0.00203471
5.55754e-07
0.00203416
5.46038e-07
0.00203362
5.36467e-07
0.0020331
5.27036e-07
0.00203258
5.17741e-07
0.00203207
5.08578e-07
0.00203157
4.99543e-07
0.00203108
4.90633e-07
0.0020306
4.81842e-07
0.00203013
4.73169e-07
0.00202966
4.6461e-07
0.0020292
4.5616e-07
0.00202876
4.47819e-07
0.00202832
4.39581e-07
0.00202789
4.31446e-07
0.00202746
4.23408e-07
0.00202705
4.15467e-07
0.00202664
4.07619e-07
0.00202624
3.99862e-07
0.00202585
3.92194e-07
0.00202546
3.84612e-07
0.00202509
3.77114e-07
0.00202472
3.69698e-07
0.00202435
3.62362e-07
0.002024
3.55103e-07
0.00202365
3.47921e-07
0.00202331
3.40813e-07
0.00202298
3.33777e-07
0.00202265
3.26812e-07
0.00202233
3.19916e-07
0.00202202
3.13088e-07
0.00202171
3.06325e-07
0.00202141
2.99628e-07
0.00202112
2.92993e-07
0.00202083
2.86421e-07
0.00202055
2.79909e-07
0.00202028
2.73456e-07
0.00202001
2.67062e-07
0.00201975
2.60725e-07
0.0020195
2.54444e-07
0.00201925
2.48218e-07
0.00201901
2.42047e-07
0.00201877
2.35928e-07
0.00201854
2.29862e-07
0.00201832
2.23847e-07
0.0020181
2.17883e-07
0.00201789
2.11969e-07
0.00201768
2.06105e-07
0.00201748
2.00289e-07
0.00201728
1.9452e-07
0.0020171
1.88799e-07
0.00201691
1.83125e-07
0.00201674
1.77497e-07
0.00201656
1.71915e-07
0.0020164
1.66378e-07
0.00201624
1.60886e-07
0.00201608
1.55439e-07
0.00201593
1.50035e-07
0.00201579
1.44675e-07
0.00201565
1.39359e-07
0.00201551
1.34085e-07
0.00201538
1.28855e-07
0.00201526
1.23667e-07
0.00201514
1.18522e-07
0.00201503
1.13418e-07
0.00201492
1.08357e-07
0.00201482
1.03337e-07
0.00201472
9.83594e-08
0.00201462
9.34232e-08
0.00201454
8.85285e-08
0.00201445
8.36751e-08
0.00201437
7.88631e-08
0.0020143
7.40924e-08
0.00201423
6.93629e-08
0.00201417
6.46747e-08
0.00201411
6.00276e-08
0.00201405
5.54218e-08
0.002014
5.08571e-08
0.00201395
4.63337e-08
0.00201391
4.18515e-08
0.00201387
3.74105e-08
0.00201384
3.30109e-08
0.00201381
2.86526e-08
0.00201379
2.43357e-08
0.00201377
2.00602e-08
0.00201375
1.58263e-08
0.00201374
1.16338e-08
0.00201373
7.48297e-09
0.00201373
3.37376e-09
0.00201373
-6.93745e-10
0.00201373
-4.71951e-09
0.00201374
-8.70346e-09
0.00201376
-1.26456e-08
0.00201377
-1.65458e-08
0.00201379
-2.04041e-08
0.00201382
-2.42204e-08
0.00201385
-2.79947e-08
0.00201388
-3.1727e-08
0.00201391
-3.54173e-08
0.00201395
-3.90655e-08
0.00201399
-4.26716e-08
0.00201404
-4.62357e-08
0.00201409
-4.97578e-08
0.00201414
-5.32378e-08
0.0020142
-5.66759e-08
0.00201426
-6.0072e-08
0.00201432
-6.34262e-08
0.00201439
-6.67385e-08
0.00201446
-7.00091e-08
0.00201453
-7.3238e-08
0.00201461
-7.64252e-08
0.00201469
-7.95709e-08
0.00201477
-8.26752e-08
0.00201486
-8.57382e-08
0.00201495
-8.876e-08
0.00201504
-9.17408e-08
0.00201513
-9.46807e-08
0.00201523
-9.75798e-08
0.00201533
-1.00438e-07
0.00201543
-1.03257e-07
0.00201554
-1.06034e-07
0.00201565
-1.08772e-07
0.00201576
-1.1147e-07
0.00201587
-1.14129e-07
0.00201599
-1.16748e-07
0.00201611
-1.19328e-07
0.00201623
-1.21869e-07
0.00201636
-1.24371e-07
0.00201648
-1.26835e-07
0.00201661
-1.29261e-07
0.00201674
-1.31649e-07
0.00201688
-1.33999e-07
0.00201701
-1.36312e-07
0.00201715
-1.38587e-07
0.00201729
-1.40826e-07
0.00201744
-1.43029e-07
0.00201758
-1.45195e-07
0.00201773
-1.47325e-07
0.00201788
-1.4942e-07
0.00201803
-1.51479e-07
0.00201818
-1.53503e-07
0.00201834
-1.55493e-07
0.0020185
-1.57448e-07
0.00201866
-1.59369e-07
0.00201882
-1.61257e-07
0.00201898
-1.63111e-07
0.00201915
-1.64932e-07
0.00201931
-1.6672e-07
0.00201948
-1.68475e-07
0.00201965
-1.70199e-07
0.00201982
-1.71891e-07
0.00202
-1.73551e-07
0.00202017
-1.7518e-07
0.00202035
-1.76778e-07
0.00202053
-1.78345e-07
0.00202071
-1.79882e-07
0.00202089
-1.81389e-07
0.00202107
-1.82867e-07
0.00202126
-1.84315e-07
0.00202144
-1.85735e-07
0.00202163
-1.87125e-07
0.00202182
-1.88487e-07
0.00202201
-1.89821e-07
0.0020222
-1.91128e-07
0.00202239
-1.92406e-07
0.00202258
-1.93658e-07
0.00202278
-1.94882e-07
0.00202297
-1.9608e-07
0.00202317
-1.97252e-07
0.00202337
-1.98397e-07
0.00202357
-1.99517e-07
0.00202377
-2.00611e-07
0.00202397
-2.01679e-07
0.00202418
-2.02723e-07
0.00202438
-2.03742e-07
0.00202458
-2.04737e-07
0.00202479
-2.05707e-07
0.002025
-2.06654e-07
0.0020252
-2.07577e-07
0.00202541
-2.08476e-07
0.00202562
-2.09352e-07
0.00202583
-2.10206e-07
0.00202604
-2.11036e-07
0.00202625
-2.11844e-07
0.00202647
-2.1263e-07
0.00202668
-2.13394e-07
0.00202689
-2.14137e-07
0.00202711
-2.14858e-07
0.00202732
-2.15557e-07
0.00202754
-2.16236e-07
0.00202776
-2.16894e-07
0.00202798
-2.17531e-07
0.00202819
-2.18148e-07
0.00202841
-2.18745e-07
0.00202863
-2.19322e-07
0.00202885
-2.1988e-07
0.00202907
-2.20418e-07
0.00202929
-2.20937e-07
0.00202951
-2.21437e-07
0.00202974
-2.21918e-07
0.00202996
-2.22381e-07
0.00203018
-2.22825e-07
0.0020304
-2.23251e-07
0.00203063
-2.2366e-07
0.00203085
-2.2405e-07
0.00203108
-2.24424e-07
0.0020313
-2.2478e-07
0.00203153
-2.25119e-07
0.00203175
-2.25441e-07
0.00203198
-2.25747e-07
0.0020322
-2.26036e-07
0.00203243
-2.26309e-07
0.00203266
-2.26566e-07
0.00203288
-2.26807e-07
0.00203311
-2.27033e-07
0.00203334
-2.27243e-07
0.00203357
-2.27438e-07
0.00203379
-2.27618e-07
0.00203402
-2.27784e-07
0.00203425
-2.27934e-07
0.00203448
-2.28071e-07
0.00203471
-2.28193e-07
0.00203493
-2.28302e-07
0.00203516
-2.28396e-07
0.00203539
-2.28477e-07
0.00203562
-2.28545e-07
0.00203585
-2.28599e-07
0.00203608
-2.2864e-07
0.0020363
-2.28669e-07
0.00203653
-2.28684e-07
0.00203676
-2.28688e-07
0.00203699
-2.28679e-07
0.00203722
-2.28658e-07
0.00203745
-2.28625e-07
0.00203768
-2.2858e-07
0.00203791
-2.28524e-07
0.00203813
-2.28456e-07
0.00203836
-2.28377e-07
0.00203859
-2.28288e-07
0.00203882
-2.28187e-07
0.00203905
-2.28075e-07
0.00203927
-2.27953e-07
0.0020395
-2.2782e-07
0.00203973
-2.27677e-07
0.00203996
-2.27525e-07
0.00204018
-2.27362e-07
0.00204041
-2.27189e-07
0.00204064
-2.27006e-07
0.00204087
-2.26814e-07
0.00204109
-2.26613e-07
0.00204132
-2.26402e-07
0.00204155
-2.26183e-07
0.00204177
-2.25954e-07
0.002042
-2.25716e-07
0.00204222
-2.25469e-07
0.00204245
-2.25214e-07
0.00204267
-2.2495e-07
0.0020429
-2.24678e-07
0.00204312
-2.24398e-07
0.00204335
-2.24109e-07
0.00204357
-2.23811e-07
0.00204379
-2.23506e-07
0.00204402
-2.23193e-07
0.00204424
-2.22871e-07
0.00204446
-2.22542e-07
0.00204468
-2.22205e-07
0.00204491
-2.2186e-07
0.00204513
-2.21507e-07
0.00204535
-2.21146e-07
0.00204557
-2.20777e-07
0.00204579
-2.20401e-07
0.00204601
-2.20017e-07
0.00204623
-2.19625e-07
0.00204645
-2.19225e-07
0.00204667
-2.18817e-07
0.00204689
-2.18401e-07
0.0020471
-2.17976e-07
0.00204732
-2.17544e-07
0.00204754
-2.17103e-07
0.00204775
-2.16653e-07
0.00204797
-2.16195e-07
0.00204819
-2.15728e-07
0.0020484
-2.15251e-07
0.00204862
-2.14765e-07
0.00204883
-2.14268e-07
0.00204904
-2.13762e-07
0.00204926
-2.13244e-07
0.00204947
-2.12715e-07
0.00204968
-2.12174e-07
0.00204989
-2.1162e-07
0.00205011
-2.11053e-07
0.00205032
-2.10471e-07
0.00205053
-2.09874e-07
0.00205074
-2.0926e-07
0.00205094
-2.08628e-07
0.00205115
-2.07976e-07
0.00205136
-2.07301e-07
0.00205157
-2.06604e-07
0.00205177
-2.05865e-07
0.00205198
-2.05153e-07
0.00205218
-2.04129e-07
0.00205239
-2.04367e-07
-1.9865e-07
0.00243699
0.000170511
0.00238645
0.000108911
0.00234549
7.74065e-05
0.00231243
5.67991e-05
0.00228645
4.27952e-05
0.00226591
3.3784e-05
0.00224923
2.77074e-05
0.00223535
2.33224e-05
0.00222357
2.00656e-05
0.00221337
1.75903e-05
0.00220439
1.56514e-05
0.00219638
1.40925e-05
0.00218916
1.28142e-05
0.0021826
1.17479e-05
0.00217657
1.08451e-05
0.00217101
1.00708e-05
0.00216585
9.3993e-06
0.00216104
8.81137e-06
0.00215653
8.29223e-06
0.00215228
7.83038e-06
0.00214828
7.41674e-06
0.00214449
7.04407e-06
0.00214089
6.70649e-06
0.00213746
6.3992e-06
0.0021342
6.11824e-06
0.00213108
5.86031e-06
0.00212809
5.62262e-06
0.00212522
5.40285e-06
0.00212247
5.19899e-06
0.00211983
5.00933e-06
0.00211728
4.8324e-06
0.00211482
4.66693e-06
0.00211245
4.51181e-06
0.00211016
4.36605e-06
0.00210794
4.22882e-06
0.00210579
4.09936e-06
0.00210371
3.97699e-06
0.00210169
3.86114e-06
0.00209974
3.75127e-06
0.00209783
3.64691e-06
0.00209599
3.54763e-06
0.00209419
3.45306e-06
0.00209244
3.36285e-06
0.00209074
3.27669e-06
0.00208908
3.1943e-06
0.00208746
3.11541e-06
0.00208589
3.03981e-06
0.00208435
2.96728e-06
0.00208285
2.89761e-06
0.00208138
2.83063e-06
0.00207995
2.76618e-06
0.00207856
2.70411e-06
0.00207719
2.64427e-06
0.00207586
2.58655e-06
0.00207455
2.53081e-06
0.00207327
2.47695e-06
0.00207202
2.42487e-06
0.0020708
2.37447e-06
0.0020696
2.32566e-06
0.00206843
2.27837e-06
0.00206728
2.23252e-06
0.00206615
2.18802e-06
0.00206505
2.14483e-06
0.00206397
2.10287e-06
0.00206291
2.06209e-06
0.00206187
2.02243e-06
0.00206085
1.98384e-06
0.00205985
1.94627e-06
0.00205887
1.90968e-06
0.00205791
1.87403e-06
0.00205697
1.83926e-06
0.00205604
1.80535e-06
0.00205513
1.77226e-06
0.00205424
1.73996e-06
0.00205336
1.7084e-06
0.0020525
1.67757e-06
0.00205166
1.64743e-06
0.00205083
1.61796e-06
0.00205002
1.58913e-06
0.00204922
1.56091e-06
0.00204843
1.53329e-06
0.00204766
1.50623e-06
0.00204691
1.47972e-06
0.00204616
1.45374e-06
0.00204543
1.42827e-06
0.00204471
1.40329e-06
0.00204401
1.37879e-06
0.00204332
1.35474e-06
0.00204264
1.33113e-06
0.00204197
1.30794e-06
0.00204131
1.28517e-06
0.00204066
1.26279e-06
0.00204003
1.2408e-06
0.00203941
1.21917e-06
0.0020388
1.19791e-06
0.00203819
1.17699e-06
0.0020376
1.15641e-06
0.00203702
1.13616e-06
0.00203645
1.11621e-06
0.00203589
1.09658e-06
0.00203534
1.07724e-06
0.0020348
1.05818e-06
0.00203427
1.0394e-06
0.00203375
1.0209e-06
0.00203324
1.00265e-06
0.00203273
9.84656e-07
0.00203224
9.66908e-07
0.00203176
9.49399e-07
0.00203128
9.32122e-07
0.00203081
9.1507e-07
0.00203035
8.98237e-07
0.0020299
8.81616e-07
0.00202946
8.65202e-07
0.00202903
8.48989e-07
0.0020286
8.32972e-07
0.00202819
8.17145e-07
0.00202778
8.01503e-07
0.00202738
7.86042e-07
0.00202698
7.70756e-07
0.0020266
7.55642e-07
0.00202622
7.40694e-07
0.00202585
7.25909e-07
0.00202548
7.11282e-07
0.00202513
6.9681e-07
0.00202478
6.8249e-07
0.00202444
6.68316e-07
0.0020241
6.54287e-07
0.00202378
6.40398e-07
0.00202345
6.26647e-07
0.00202314
6.13031e-07
0.00202284
5.99546e-07
0.00202254
5.86189e-07
0.00202224
5.72959e-07
0.00202196
5.59853e-07
0.00202168
5.46867e-07
0.0020214
5.34001e-07
0.00202114
5.2125e-07
0.00202088
5.08615e-07
0.00202062
4.96091e-07
0.00202037
4.83678e-07
0.00202013
4.71373e-07
0.0020199
4.59174e-07
0.00201967
4.47081e-07
0.00201944
4.35091e-07
0.00201923
4.23203e-07
0.00201902
4.11416e-07
0.00201881
3.99727e-07
0.00201861
3.88136e-07
0.00201842
3.76642e-07
0.00201823
3.65243e-07
0.00201805
3.53939e-07
0.00201787
3.42727e-07
0.0020177
3.31609e-07
0.00201754
3.20581e-07
0.00201738
3.09645e-07
0.00201722
2.98798e-07
0.00201707
2.88041e-07
0.00201693
2.77372e-07
0.00201679
2.66791e-07
0.00201666
2.56297e-07
0.00201653
2.45891e-07
0.00201641
2.35571e-07
0.00201629
2.25337e-07
0.00201618
2.15189e-07
0.00201607
2.05126e-07
0.00201597
1.95148e-07
0.00201588
1.85256e-07
0.00201578
1.75447e-07
0.0020157
1.65724e-07
0.00201562
1.56084e-07
0.00201554
1.46529e-07
0.00201547
1.37058e-07
0.0020154
1.27671e-07
0.00201534
1.18369e-07
0.00201528
1.0915e-07
0.00201522
1.00015e-07
0.00201517
9.09637e-08
0.00201513
8.19967e-08
0.00201509
7.31138e-08
0.00201505
6.4315e-08
0.00201502
5.56003e-08
0.002015
4.69698e-08
0.00201497
3.84237e-08
0.00201496
2.99619e-08
0.00201494
2.15845e-08
0.00201493
1.32917e-08
0.00201493
5.08348e-09
0.00201492
-3.04005e-09
0.00201493
-1.10788e-08
0.00201493
-1.90327e-08
0.00201494
-2.69018e-08
0.00201496
-3.46858e-08
0.00201498
-4.23849e-08
0.002015
-4.99989e-08
0.00201502
-5.75278e-08
0.00201505
-6.49716e-08
0.00201509
-7.23304e-08
0.00201512
-7.9604e-08
0.00201516
-8.67926e-08
0.00201521
-9.38962e-08
0.00201526
-1.00915e-07
0.00201531
-1.07849e-07
0.00201536
-1.14698e-07
0.00201542
-1.21462e-07
0.00201548
-1.28142e-07
0.00201555
-1.34737e-07
0.00201561
-1.41248e-07
0.00201568
-1.47675e-07
0.00201576
-1.54018e-07
0.00201584
-1.60278e-07
0.00201592
-1.66454e-07
0.002016
-1.72547e-07
0.00201609
-1.78558e-07
0.00201618
-1.84485e-07
0.00201627
-1.90331e-07
0.00201637
-1.96095e-07
0.00201646
-2.01777e-07
0.00201657
-2.07378e-07
0.00201667
-2.12899e-07
0.00201678
-2.18339e-07
0.00201689
-2.237e-07
0.002017
-2.28981e-07
0.00201711
-2.34183e-07
0.00201723
-2.39306e-07
0.00201735
-2.44352e-07
0.00201747
-2.4932e-07
0.0020176
-2.54211e-07
0.00201773
-2.59026e-07
0.00201786
-2.63765e-07
0.00201799
-2.68429e-07
0.00201812
-2.73018e-07
0.00201826
-2.77533e-07
0.0020184
-2.81975e-07
0.00201854
-2.86343e-07
0.00201868
-2.90639e-07
0.00201883
-2.94864e-07
0.00201898
-2.99017e-07
0.00201912
-3.031e-07
0.00201928
-3.07113e-07
0.00201943
-3.11057e-07
0.00201959
-3.14932e-07
0.00201974
-3.18739e-07
0.0020199
-3.2248e-07
0.00202006
-3.26153e-07
0.00202023
-3.2976e-07
0.00202039
-3.33302e-07
0.00202056
-3.3678e-07
0.00202073
-3.40193e-07
0.0020209
-3.43543e-07
0.00202107
-3.4683e-07
0.00202124
-3.50055e-07
0.00202142
-3.53219e-07
0.00202159
-3.56321e-07
0.00202177
-3.59364e-07
0.00202195
-3.62347e-07
0.00202213
-3.6527e-07
0.00202231
-3.68136e-07
0.0020225
-3.70943e-07
0.00202268
-3.73694e-07
0.00202287
-3.76388e-07
0.00202306
-3.79026e-07
0.00202325
-3.81609e-07
0.00202344
-3.84137e-07
0.00202363
-3.8661e-07
0.00202382
-3.89031e-07
0.00202402
-3.91398e-07
0.00202421
-3.93712e-07
0.00202441
-3.95975e-07
0.0020246
-3.98187e-07
0.0020248
-4.00347e-07
0.002025
-4.02458e-07
0.0020252
-4.04519e-07
0.00202541
-4.0653e-07
0.00202561
-4.08493e-07
0.00202581
-4.10408e-07
0.00202602
-4.12275e-07
0.00202622
-4.14095e-07
0.00202643
-4.15869e-07
0.00202664
-4.17596e-07
0.00202684
-4.19278e-07
0.00202705
-4.20915e-07
0.00202726
-4.22507e-07
0.00202747
-4.24055e-07
0.00202769
-4.25559e-07
0.0020279
-4.27021e-07
0.00202811
-4.28439e-07
0.00202832
-4.29816e-07
0.00202854
-4.3115e-07
0.00202875
-4.32444e-07
0.00202897
-4.33696e-07
0.00202919
-4.34908e-07
0.0020294
-4.36081e-07
0.00202962
-4.37214e-07
0.00202984
-4.38308e-07
0.00203006
-4.39363e-07
0.00203027
-4.4038e-07
0.00203049
-4.4136e-07
0.00203071
-4.42302e-07
0.00203093
-4.43207e-07
0.00203116
-4.44077e-07
0.00203138
-4.4491e-07
0.0020316
-4.45708e-07
0.00203182
-4.4647e-07
0.00203204
-4.47198e-07
0.00203227
-4.47892e-07
0.00203249
-4.48552e-07
0.00203271
-4.49179e-07
0.00203294
-4.49773e-07
0.00203316
-4.50334e-07
0.00203338
-4.50863e-07
0.00203361
-4.5136e-07
0.00203383
-4.51827e-07
0.00203406
-4.52262e-07
0.00203428
-4.52666e-07
0.00203451
-4.53041e-07
0.00203473
-4.53386e-07
0.00203496
-4.53702e-07
0.00203519
-4.53989e-07
0.00203541
-4.54247e-07
0.00203564
-4.54477e-07
0.00203586
-4.5468e-07
0.00203609
-4.54855e-07
0.00203632
-4.55003e-07
0.00203654
-4.55125e-07
0.00203677
-4.55221e-07
0.002037
-4.55291e-07
0.00203722
-4.55335e-07
0.00203745
-4.55354e-07
0.00203768
-4.55349e-07
0.0020379
-4.55319e-07
0.00203813
-4.55266e-07
0.00203836
-4.55189e-07
0.00203858
-4.55088e-07
0.00203881
-4.54965e-07
0.00203904
-4.54819e-07
0.00203926
-4.54651e-07
0.00203949
-4.54461e-07
0.00203972
-4.54249e-07
0.00203994
-4.54016e-07
0.00204017
-4.53762e-07
0.00204039
-4.53488e-07
0.00204062
-4.53193e-07
0.00204084
-4.52878e-07
0.00204107
-4.52543e-07
0.0020413
-4.52189e-07
0.00204152
-4.51816e-07
0.00204174
-4.51424e-07
0.00204197
-4.51013e-07
0.00204219
-4.50584e-07
0.00204242
-4.50137e-07
0.00204264
-4.49672e-07
0.00204287
-4.49189e-07
0.00204309
-4.48689e-07
0.00204331
-4.48171e-07
0.00204354
-4.47636e-07
0.00204376
-4.47085e-07
0.00204398
-4.46517e-07
0.0020442
-4.45932e-07
0.00204442
-4.45331e-07
0.00204465
-4.44714e-07
0.00204487
-4.44081e-07
0.00204509
-4.43432e-07
0.00204531
-4.42767e-07
0.00204553
-4.42086e-07
0.00204575
-4.41389e-07
0.00204597
-4.40677e-07
0.00204619
-4.39949e-07
0.00204641
-4.39205e-07
0.00204662
-4.38446e-07
0.00204684
-4.3767e-07
0.00204706
-4.36879e-07
0.00204728
-4.36072e-07
0.00204749
-4.35249e-07
0.00204771
-4.34409e-07
0.00204793
-4.33553e-07
0.00204814
-4.3268e-07
0.00204836
-4.3179e-07
0.00204857
-4.30882e-07
0.00204879
-4.29955e-07
0.002049
-4.29011e-07
0.00204921
-4.28047e-07
0.00204943
-4.27063e-07
0.00204964
-4.26058e-07
0.00204985
-4.25031e-07
0.00205006
-4.23982e-07
0.00205027
-4.22909e-07
0.00205048
-4.2181e-07
0.00205069
-4.20685e-07
0.0020509
-4.1953e-07
0.00205111
-4.18345e-07
0.00205132
-4.17127e-07
0.00205152
-4.15872e-07
0.00205173
-4.14578e-07
0.00205194
-4.13239e-07
0.00205214
-4.11853e-07
0.00205235
-4.10404e-07
0.00205255
-4.08914e-07
0.00205275
-4.07218e-07
0.00205296
-4.05779e-07
-4.01842e-07
0.00247084
0.000190158
0.00243653
0.000143226
0.00240244
0.00011149
0.00237102
8.82236e-05
0.00234325
7.05573e-05
0.00231943
5.7604e-05
0.00229907
4.80703e-05
0.00228155
4.08456e-05
0.00226635
3.52651e-05
0.00225305
3.08918e-05
0.0022413
2.74027e-05
0.00223082
2.4569e-05
0.0022214
2.22321e-05
0.00221287
2.02782e-05
0.00220509
1.8624e-05
0.00219796
1.72078e-05
0.00219137
1.5983e-05
0.00218527
1.49144e-05
0.00217959
1.39745e-05
0.00217428
1.31418e-05
0.00216929
1.23992e-05
0.0021646
1.1733e-05
0.00216018
1.11321e-05
0.00215599
1.05875e-05
0.00215202
1.00916e-05
0.00214824
9.63824e-06
0.00214464
9.2221e-06
0.0021412
8.8388e-06
0.00213792
8.48459e-06
0.00213477
8.15624e-06
0.00213175
7.85101e-06
0.00212885
7.5665e-06
0.00212606
7.30066e-06
0.00212338
7.05166e-06
0.00212079
6.81794e-06
0.00211829
6.59809e-06
0.00211588
6.3909e-06
0.00211354
6.19527e-06
0.00211128
6.01023e-06
0.0021091
5.83492e-06
0.00210697
5.66857e-06
0.00210492
5.51049e-06
0.00210292
5.36004e-06
0.00210098
5.21667e-06
0.00209909
5.07988e-06
0.00209726
4.94919e-06
0.00209548
4.82419e-06
0.00209374
4.70449e-06
0.00209205
4.58975e-06
0.0020904
4.47965e-06
0.00208879
4.37389e-06
0.00208722
4.27222e-06
0.00208569
4.17437e-06
0.0020842
4.08013e-06
0.00208274
3.98928e-06
0.00208132
3.90163e-06
0.00207992
3.81701e-06
0.00207856
3.73524e-06
0.00207723
3.65617e-06
0.00207593
3.57965e-06
0.00207466
3.50557e-06
0.00207341
3.43378e-06
0.00207219
3.36418e-06
0.002071
3.29665e-06
0.00206983
3.2311e-06
0.00206868
3.16743e-06
0.00206756
3.10555e-06
0.00206646
3.04538e-06
0.00206539
2.98684e-06
0.00206433
2.92985e-06
0.0020633
2.87435e-06
0.00206228
2.82027e-06
0.00206129
2.76755e-06
0.00206031
2.71613e-06
0.00205935
2.66595e-06
0.00205841
2.61698e-06
0.00205749
2.56914e-06
0.00205659
2.52241e-06
0.0020557
2.47673e-06
0.00205483
2.43207e-06
0.00205397
2.38838e-06
0.00205313
2.34562e-06
0.00205231
2.30377e-06
0.0020515
2.26278e-06
0.00205071
2.22263e-06
0.00204993
2.18328e-06
0.00204916
2.1447e-06
0.00204841
2.10687e-06
0.00204767
2.06977e-06
0.00204694
2.03335e-06
0.00204623
1.99761e-06
0.00204553
1.96251e-06
0.00204484
1.92804e-06
0.00204417
1.89417e-06
0.00204351
1.86088e-06
0.00204285
1.82816e-06
0.00204222
1.79598e-06
0.00204159
1.76433e-06
0.00204097
1.7332e-06
0.00204036
1.70255e-06
0.00203977
1.67239e-06
0.00203918
1.64268e-06
0.00203861
1.61343e-06
0.00203805
1.58461e-06
0.00203749
1.55621e-06
0.00203695
1.52823e-06
0.00203642
1.50064e-06
0.00203589
1.47343e-06
0.00203538
1.4466e-06
0.00203487
1.42013e-06
0.00203438
1.39401e-06
0.00203389
1.36824e-06
0.00203341
1.34279e-06
0.00203294
1.31767e-06
0.00203248
1.29287e-06
0.00203203
1.26837e-06
0.00203159
1.24417e-06
0.00203116
1.22026e-06
0.00203073
1.19662e-06
0.00203031
1.17327e-06
0.0020299
1.15018e-06
0.0020295
1.12735e-06
0.00202911
1.10477e-06
0.00202872
1.08245e-06
0.00202834
1.06036e-06
0.00202797
1.03851e-06
0.00202761
1.01689e-06
0.00202726
9.95493e-07
0.00202691
9.74316e-07
0.00202657
9.53354e-07
0.00202624
9.32601e-07
0.00202591
9.12053e-07
0.00202559
8.91707e-07
0.00202528
8.71556e-07
0.00202497
8.51599e-07
0.00202468
8.3183e-07
0.00202439
8.12246e-07
0.0020241
7.92843e-07
0.00202382
7.73618e-07
0.00202355
7.54569e-07
0.00202329
7.35691e-07
0.00202303
7.16982e-07
0.00202278
6.98439e-07
0.00202253
6.80059e-07
0.0020223
6.61841e-07
0.00202206
6.43781e-07
0.00202184
6.25877e-07
0.00202162
6.08128e-07
0.0020214
5.9053e-07
0.0020212
5.73083e-07
0.00202099
5.55784e-07
0.0020208
5.38632e-07
0.00202061
5.21625e-07
0.00202042
5.04762e-07
0.00202024
4.88041e-07
0.00202007
4.71461e-07
0.00201991
4.5502e-07
0.00201974
4.38719e-07
0.00201959
4.22555e-07
0.00201944
4.06527e-07
0.00201929
3.90636e-07
0.00201915
3.74879e-07
0.00201902
3.59256e-07
0.00201889
3.43767e-07
0.00201877
3.28411e-07
0.00201865
3.13188e-07
0.00201854
2.98096e-07
0.00201843
2.83136e-07
0.00201833
2.68307e-07
0.00201823
2.53609e-07
0.00201814
2.39041e-07
0.00201805
2.24604e-07
0.00201797
2.10297e-07
0.00201789
1.96119e-07
0.00201782
1.82072e-07
0.00201775
1.68154e-07
0.00201768
1.54366e-07
0.00201763
1.40707e-07
0.00201757
1.27178e-07
0.00201752
1.13778e-07
0.00201748
1.00509e-07
0.00201744
8.73684e-08
0.0020174
7.43578e-08
0.00201737
6.14769e-08
0.00201734
4.87258e-08
0.00201732
3.61045e-08
0.0020173
2.3613e-08
0.00201729
1.12515e-08
0.00201728
-9.79999e-10
0.00201727
-1.30815e-08
0.00201727
-2.50529e-08
0.00201727
-3.68942e-08
0.00201728
-4.86054e-08
0.00201729
-6.01864e-08
0.0020173
-7.16373e-08
0.00201732
-8.29581e-08
0.00201734
-9.41488e-08
0.00201737
-1.0521e-07
0.0020174
-1.1614e-07
0.00201743
-1.26941e-07
0.00201747
-1.37613e-07
0.00201751
-1.48155e-07
0.00201755
-1.58567e-07
0.0020176
-1.6885e-07
0.00201765
-1.79005e-07
0.0020177
-1.89031e-07
0.00201776
-1.98928e-07
0.00201782
-2.08698e-07
0.00201789
-2.18339e-07
0.00201795
-2.27854e-07
0.00201802
-2.37241e-07
0.0020181
-2.46502e-07
0.00201818
-2.55638e-07
0.00201826
-2.64647e-07
0.00201834
-2.73532e-07
0.00201842
-2.82292e-07
0.00201851
-2.90928e-07
0.00201861
-2.99441e-07
0.0020187
-3.07831e-07
0.0020188
-3.161e-07
0.0020189
-3.24247e-07
0.002019
-3.32273e-07
0.00201911
-3.4018e-07
0.00201922
-3.47967e-07
0.00201933
-3.55636e-07
0.00201944
-3.63188e-07
0.00201956
-3.70623e-07
0.00201968
-3.77941e-07
0.0020198
-3.85145e-07
0.00201992
-3.92235e-07
0.00202005
-3.99211e-07
0.00202018
-4.06075e-07
0.00202031
-4.12827e-07
0.00202044
-4.19468e-07
0.00202058
-4.26e-07
0.00202071
-4.32423e-07
0.00202085
-4.38739e-07
0.002021
-4.44947e-07
0.00202114
-4.5105e-07
0.00202129
-4.57048e-07
0.00202143
-4.62942e-07
0.00202158
-4.68733e-07
0.00202174
-4.74422e-07
0.00202189
-4.8001e-07
0.00202205
-4.85498e-07
0.0020222
-4.90887e-07
0.00202236
-4.96178e-07
0.00202252
-5.01372e-07
0.00202269
-5.0647e-07
0.00202285
-5.11472e-07
0.00202302
-5.16381e-07
0.00202319
-5.21197e-07
0.00202336
-5.2592e-07
0.00202353
-5.30552e-07
0.0020237
-5.35094e-07
0.00202387
-5.39547e-07
0.00202405
-5.43911e-07
0.00202423
-5.48188e-07
0.0020244
-5.52379e-07
0.00202459
-5.56483e-07
0.00202477
-5.60504e-07
0.00202495
-5.6444e-07
0.00202513
-5.68293e-07
0.00202532
-5.72065e-07
0.00202551
-5.75755e-07
0.00202569
-5.79366e-07
0.00202588
-5.82896e-07
0.00202607
-5.86349e-07
0.00202626
-5.89723e-07
0.00202646
-5.93021e-07
0.00202665
-5.96243e-07
0.00202685
-5.99389e-07
0.00202704
-6.02462e-07
0.00202724
-6.0546e-07
0.00202744
-6.08386e-07
0.00202764
-6.1124e-07
0.00202784
-6.14022e-07
0.00202804
-6.16735e-07
0.00202824
-6.19377e-07
0.00202844
-6.2195e-07
0.00202864
-6.24456e-07
0.00202885
-6.26894e-07
0.00202905
-6.29265e-07
0.00202926
-6.3157e-07
0.00202947
-6.3381e-07
0.00202967
-6.35985e-07
0.00202988
-6.38097e-07
0.00203009
-6.40146e-07
0.0020303
-6.42132e-07
0.00203051
-6.44056e-07
0.00203072
-6.45919e-07
0.00203093
-6.47722e-07
0.00203115
-6.49466e-07
0.00203136
-6.5115e-07
0.00203157
-6.52777e-07
0.00203179
-6.54345e-07
0.002032
-6.55857e-07
0.00203222
-6.57312e-07
0.00203243
-6.58712e-07
0.00203265
-6.60056e-07
0.00203286
-6.61347e-07
0.00203308
-6.62584e-07
0.0020333
-6.63768e-07
0.00203352
-6.64899e-07
0.00203373
-6.65979e-07
0.00203395
-6.67007e-07
0.00203417
-6.67985e-07
0.00203439
-6.68914e-07
0.00203461
-6.69793e-07
0.00203483
-6.70624e-07
0.00203505
-6.71406e-07
0.00203527
-6.72142e-07
0.00203549
-6.72831e-07
0.00203571
-6.73473e-07
0.00203593
-6.7407e-07
0.00203615
-6.74623e-07
0.00203638
-6.75131e-07
0.0020366
-6.75595e-07
0.00203682
-6.76017e-07
0.00203704
-6.76396e-07
0.00203726
-6.76733e-07
0.00203749
-6.77028e-07
0.00203771
-6.77283e-07
0.00203793
-6.77498e-07
0.00203815
-6.77674e-07
0.00203837
-6.7781e-07
0.0020386
-6.77908e-07
0.00203882
-6.77968e-07
0.00203904
-6.77991e-07
0.00203927
-6.77977e-07
0.00203949
-6.77927e-07
0.00203971
-6.77841e-07
0.00203993
-6.7772e-07
0.00204016
-6.77564e-07
0.00204038
-6.77375e-07
0.0020406
-6.77151e-07
0.00204082
-6.76895e-07
0.00204105
-6.76605e-07
0.00204127
-6.76284e-07
0.00204149
-6.75931e-07
0.00204171
-6.75547e-07
0.00204193
-6.75132e-07
0.00204216
-6.74687e-07
0.00204238
-6.74212e-07
0.0020426
-6.73707e-07
0.00204282
-6.73174e-07
0.00204304
-6.72612e-07
0.00204326
-6.72022e-07
0.00204348
-6.71404e-07
0.0020437
-6.70758e-07
0.00204392
-6.70086e-07
0.00204414
-6.69387e-07
0.00204436
-6.68661e-07
0.00204458
-6.67909e-07
0.0020448
-6.67132e-07
0.00204502
-6.66329e-07
0.00204524
-6.65501e-07
0.00204546
-6.64648e-07
0.00204568
-6.6377e-07
0.0020459
-6.62868e-07
0.00204612
-6.61942e-07
0.00204633
-6.60991e-07
0.00204655
-6.60016e-07
0.00204677
-6.59018e-07
0.00204698
-6.57995e-07
0.0020472
-6.56949e-07
0.00204742
-6.5588e-07
0.00204763
-6.54786e-07
0.00204785
-6.53669e-07
0.00204806
-6.52528e-07
0.00204828
-6.51363e-07
0.00204849
-6.50174e-07
0.0020487
-6.48961e-07
0.00204892
-6.47723e-07
0.00204913
-6.4646e-07
0.00204934
-6.45171e-07
0.00204955
-6.43857e-07
0.00204977
-6.42516e-07
0.00204998
-6.41147e-07
0.00205019
-6.39751e-07
0.0020504
-6.38326e-07
0.00205061
-6.36871e-07
0.00205082
-6.35385e-07
0.00205103
-6.33866e-07
0.00205123
-6.32313e-07
0.00205144
-6.30724e-07
0.00205165
-6.29098e-07
0.00205186
-6.27431e-07
0.00205206
-6.25721e-07
0.00205227
-6.23965e-07
0.00205247
-6.2216e-07
0.00205268
-6.20301e-07
0.00205288
-6.18384e-07
0.00205308
-6.16402e-07
0.00205329
-6.14349e-07
0.00205349
-6.12211e-07
0.00205369
-6.0999e-07
0.00205389
-6.07584e-07
0.00205409
-6.05201e-07
-6.0091e-07
0.00248171
0.000198932
0.00246142
0.000163519
0.00243772
0.000135196
0.00241325
0.000112692
0.00238933
9.44688e-05
0.00236699
7.99507e-05
0.00234659
6.84699e-05
0.00232814
5.92979e-05
0.00231151
5.18953e-05
0.00229652
4.5874e-05
0.002283
4.09288e-05
0.00227074
3.68233e-05
0.0022596
3.33793e-05
0.00224941
3.0462e-05
0.00224007
2.79678e-05
0.00223146
2.58167e-05
0.0022235
2.39464e-05
0.0022161
2.23083e-05
0.00220921
2.08637e-05
0.00220277
1.95816e-05
0.00219674
1.84371e-05
0.00219106
1.741e-05
0.00218571
1.64838e-05
0.00218065
1.56447e-05
0.00217586
1.48812e-05
0.00217131
1.41839e-05
0.00216699
1.35447e-05
0.00216287
1.29567e-05
0.00215894
1.24142e-05
0.00215519
1.1912e-05
0.00215159
1.14461e-05
0.00214815
1.10125e-05
0.00214484
1.0608e-05
0.00214166
1.02299e-05
0.0021386
9.87558e-06
0.00213566
9.54293e-06
0.00213282
9.22999e-06
0.00213008
8.93505e-06
0.00212743
8.65659e-06
0.00212488
8.39325e-06
0.0021224
8.14381e-06
0.00212
7.90718e-06
0.00211768
7.68238e-06
0.00211543
7.46853e-06
0.00211324
7.26483e-06
0.00211112
7.07055e-06
0.00210906
6.88503e-06
0.00210706
6.70767e-06
0.00210511
6.53794e-06
0.00210322