/*--------------------------------*- C++ -*----------------------------------*\
| =========                 |                                                 |
| \\      /  F ield         | OpenFOAM: The Open Source CFD Toolbox           |
|  \\    /   O peration     | Version:  2506                                  |
|   \\  /    A nd           | Website:  www.openfoam.com                      |
|    \\/     M anipulation  |                                                 |
\*---------------------------------------------------------------------------*/
FoamFile
{
    version     2.0;
    format      ascii;
    arch        "LSB;label=32;scalar=64";
    class       volVectorField;
    location    "700";
    object      U;
}
// * * * * * * * * * * * * * * * * * * * * * * * * * * * * * * * * * * * * * //

dimensions      [0 1 -1 0 0 0 0];

internalField   nonuniform List<vector> 
131949
(
(9.79004 0.50869 0)
(9.35424 0.191718 0)
(9.14346 0.0846578 0)
(9.05442 0.0439539 0)
(8.98406 0.0273121 0)
(8.92302 0.0209584 0)
(8.87475 0.0179553 0)
(8.83487 0.0158987 0)
(8.79991 0.0143153 0)
(8.76875 0.0130462 0)
(8.74079 0.0119817 0)
(8.71541 0.0110692 0)
(8.69214 0.0102812 0)
(8.67066 0.00959534 0)
(8.65071 0.00899304 0)
(8.63209 0.00846024 0)
(8.61463 0.00798585 0)
(8.59819 0.00756087 0)
(8.58266 0.00717802 0)
(8.56795 0.00683134 0)
(8.55397 0.00651591 0)
(8.54066 0.00622767 0)
(8.52796 0.00596321 0)
(8.5158 0.00571968 0)
(8.50416 0.00549463 0)
(8.49298 0.00528601 0)
(8.48224 0.00509204 0)
(8.4719 0.00491119 0)
(8.46194 0.00474215 0)
(8.45232 0.00458376 0)
(8.44304 0.00443502 0)
(8.43405 0.00429503 0)
(8.42536 0.00416304 0)
(8.41694 0.00403833 0)
(8.40877 0.00392031 0)
(8.40085 0.00380842 0)
(8.39315 0.00370219 0)
(8.38567 0.00360117 0)
(8.3784 0.00350496 0)
(8.37133 0.00341323 0)
(8.36444 0.00332564 0)
(8.35773 0.00324191 0)
(8.35119 0.00316176 0)
(8.34482 0.00308497 0)
(8.3386 0.00301131 0)
(8.33253 0.00294059 0)
(8.3266 0.00287261 0)
(8.32082 0.00280721 0)
(8.31516 0.00274424 0)
(8.30964 0.00268355 0)
(8.30424 0.00262502 0)
(8.29895 0.00256851 0)
(8.29378 0.00251391 0)
(8.28873 0.00246113 0)
(8.28377 0.00241007 0)
(8.27893 0.00236063 0)
(8.27418 0.00231273 0)
(8.26953 0.00226629 0)
(8.26497 0.00222124 0)
(8.26051 0.00217752 0)
(8.25613 0.00213505 0)
(8.25184 0.00209378 0)
(8.24763 0.00205365 0)
(8.2435 0.00201461 0)
(8.23945 0.00197661 0)
(8.23548 0.0019396 0)
(8.23159 0.00190355 0)
(8.22776 0.0018684 0)
(8.22401 0.00183412 0)
(8.22033 0.00180067 0)
(8.21671 0.00176802 0)
(8.21316 0.00173614 0)
(8.20968 0.00170499 0)
(8.20625 0.00167455 0)
(8.20289 0.00164478 0)
(8.19959 0.00161566 0)
(8.19635 0.00158717 0)
(8.19316 0.00155928 0)
(8.19004 0.00153197 0)
(8.18696 0.00150522 0)
(8.18394 0.001479 0)
(8.18097 0.0014533 0)
(8.17806 0.0014281 0)
(8.17519 0.00140337 0)
(8.17238 0.00137912 0)
(8.16961 0.00135531 0)
(8.16689 0.00133193 0)
(8.16422 0.00130897 0)
(8.1616 0.00128641 0)
(8.15902 0.00126424 0)
(8.15648 0.00124245 0)
(8.15399 0.00122102 0)
(8.15155 0.00119995 0)
(8.14914 0.00117922 0)
(8.14678 0.00115881 0)
(8.14445 0.00113873 0)
(8.14217 0.00111896 0)
(8.13993 0.00109948 0)
(8.13773 0.0010803 0)
(8.13556 0.0010614 0)
(8.13343 0.00104277 0)
(8.13134 0.0010244 0)
(8.12929 0.0010063 0)
(8.12728 0.000988439 0)
(8.1253 0.000970824 0)
(8.12335 0.000953445 0)
(8.12144 0.000936293 0)
(8.11957 0.000919364 0)
(8.11772 0.00090265 0)
(8.11592 0.000886145 0)
(8.11414 0.000869845 0)
(8.1124 0.000853742 0)
(8.11069 0.000837832 0)
(8.10901 0.00082211 0)
(8.10737 0.000806571 0)
(8.10575 0.000791209 0)
(8.10417 0.00077602 0)
(8.10261 0.000761001 0)
(8.10109 0.000746145 0)
(8.0996 0.00073145 0)
(8.09813 0.000716911 0)
(8.0967 0.000702524 0)
(8.09529 0.000688286 0)
(8.09391 0.000674194 0)
(8.09257 0.000660243 0)
(8.09124 0.000646431 0)
(8.08995 0.000632754 0)
(8.08868 0.000619209 0)
(8.08745 0.000605794 0)
(8.08623 0.000592506 0)
(8.08505 0.000579342 0)
(8.08389 0.000566299 0)
(8.08276 0.000553375 0)
(8.08165 0.000540567 0)
(8.08057 0.000527874 0)
(8.07951 0.000515294 0)
(8.07848 0.000502823 0)
(8.07748 0.000490461 0)
(8.0765 0.000478205 0)
(8.07554 0.000466053 0)
(8.07461 0.000454005 0)
(8.0737 0.000442057 0)
(8.07282 0.00043021 0)
(8.07196 0.00041846 0)
(8.07112 0.000406807 0)
(8.07031 0.00039525 0)
(8.06952 0.000383788 0)
(8.06876 0.000372418 0)
(8.06801 0.000361141 0)
(8.06729 0.000349954 0)
(8.06659 0.000338858 0)
(8.06592 0.000327851 0)
(8.06526 0.000316932 0)
(8.06463 0.000306101 0)
(8.06402 0.000295357 0)
(8.06343 0.000284699 0)
(8.06286 0.000274126 0)
(8.06231 0.000263639 0)
(8.06179 0.000253236 0)
(8.06128 0.000242918 0)
(8.0608 0.000232683 0)
(8.06033 0.000222531 0)
(8.05989 0.000212463 0)
(8.05947 0.000202477 0)
(8.05906 0.000192574 0)
(8.05868 0.000182752 0)
(8.05832 0.000173013 0)
(8.05797 0.000163356 0)
(8.05765 0.000153781 0)
(8.05734 0.000144287 0)
(8.05705 0.000134875 0)
(8.05679 0.000125545 0)
(8.05654 0.000116297 0)
(8.05631 0.00010713 0)
(8.05609 9.80442e-05 0)
(8.0559 8.90406e-05 0)
(8.05572 8.01187e-05 0)
(8.05556 7.12787e-05 0)
(8.05542 6.25206e-05 0)
(8.0553 5.38445e-05 0)
(8.05519 4.52505e-05 0)
(8.05511 3.67388e-05 0)
(8.05503 2.83095e-05 0)
(8.05498 1.99626e-05 0)
(8.05494 1.16983e-05 0)
(8.05492 3.51667e-06 0)
(8.05491 -4.58209e-06 0)
(8.05492 -1.25979e-05 0)
(8.05495 -2.05307e-05 0)
(8.05499 -2.83803e-05 0)
(8.05505 -3.61467e-05 0)
(8.05513 -4.38297e-05 0)
(8.05522 -5.14292e-05 0)
(8.05532 -5.89453e-05 0)
(8.05544 -6.63778e-05 0)
(8.05557 -7.37267e-05 0)
(8.05572 -8.0992e-05 0)
(8.05589 -8.81736e-05 0)
(8.05606 -9.52716e-05 0)
(8.05626 -0.000102286 1.81987e-105)
(8.05646 -0.000109217 -1.81977e-105)
(8.05668 -0.000116064 0)
(8.05692 -0.000122827 0)
(8.05716 -0.000129508 0)
(8.05742 -0.000136105 0)
(8.0577 -0.000142619 0)
(8.05798 -0.000149049 0)
(8.05828 -0.000155397 0)
(8.05859 -0.000161663 0)
(8.05892 -0.000167845 0)
(8.05926 -0.000173946 0)
(8.05961 -0.000179964 0)
(8.05997 -0.000185901 0)
(8.06034 -0.000191757 0)
(8.06072 -0.000197531 0)
(8.06112 -0.000203224 0)
(8.06153 -0.000208837 0)
(8.06195 -0.00021437 0)
(8.06238 -0.000219823 0)
(8.06282 -0.000225197 0)
(8.06327 -0.000230492 0)
(8.06373 -0.000235708 0)
(8.0642 -0.000240847 0)
(8.06468 -0.000245907 0)
(8.06518 -0.000250891 0)
(8.06568 -0.000255798 0)
(8.06619 -0.000260629 0)
(8.06671 -0.000265385 0)
(8.06724 -0.000270065 0)
(8.06778 -0.000274671 0)
(8.06833 -0.000279203 0)
(8.06889 -0.000283662 0)
(8.06946 -0.000288048 0)
(8.07004 -0.000292362 0)
(8.07062 -0.000296604 0)
(8.07122 -0.000300775 0)
(8.07182 -0.000304876 0)
(8.07243 -0.000308907 0)
(8.07305 -0.000312869 0)
(8.07367 -0.000316762 0)
(8.07431 -0.000320588 0)
(8.07495 -0.000324346 0)
(8.0756 -0.000328037 0)
(8.07625 -0.000331663 0)
(8.07692 -0.000335223 0)
(8.07759 -0.000338718 0)
(8.07826 -0.000342149 0)
(8.07895 -0.000345517 0)
(8.07964 -0.000348822 0)
(8.08034 -0.000352065 0)
(8.08104 -0.000355246 0)
(8.08175 -0.000358366 0)
(8.08247 -0.000361426 0)
(8.08319 -0.000364426 0)
(8.08392 -0.000367367 0)
(8.08465 -0.000370249 0)
(8.08539 -0.000373074 0)
(8.08614 -0.000375841 0)
(8.08689 -0.000378552 0)
(8.08765 -0.000381207 0)
(8.08841 -0.000383806 0)
(8.08917 -0.00038635 0)
(8.08995 -0.00038884 0)
(8.09072 -0.000391277 0)
(8.09151 -0.00039366 0)
(8.09229 -0.00039599 0)
(8.09308 -0.000398269 0)
(8.09388 -0.000400496 0)
(8.09468 -0.000402672 0)
(8.09548 -0.000404797 0)
(8.09629 -0.000406873 0)
(8.09711 -0.0004089 0)
(8.09792 -0.000410878 0)
(8.09874 -0.000412807 0)
(8.09957 -0.000414689 0)
(8.1004 -0.000416523 0)
(8.10123 -0.000418311 0)
(8.10207 -0.000420053 0)
(8.1029 -0.000421748 0)
(8.10375 -0.000423399 0)
(8.10459 -0.000425005 0)
(8.10544 -0.000426566 0)
(8.10629 -0.000428084 0)
(8.10715 -0.000429559 0)
(8.10801 -0.00043099 0)
(8.10887 -0.00043238 0)
(8.10973 -0.000433727 0)
(8.1106 -0.000435033 0)
(8.11147 -0.000436298 0)
(8.11234 -0.000437523 0)
(8.11321 -0.000438707 0)
(8.11409 -0.000439852 0)
(8.11497 -0.000440958 0)
(8.11585 -0.000442024 0)
(8.11673 -0.000443053 0)
(8.11761 -0.000444044 0)
(8.1185 -0.000444998 0)
(8.11939 -0.000445914 0)
(8.12028 -0.000446794 0)
(8.12117 -0.000447638 0)
(8.12207 -0.000448446 0)
(8.12296 -0.000449219 0)
(8.12386 -0.000449957 0)
(8.12476 -0.000450661 0)
(8.12566 -0.000451331 0)
(8.12656 -0.000451967 0)
(8.12746 -0.00045257 0)
(8.12836 -0.000453141 0)
(8.12927 -0.000453679 0)
(8.13017 -0.000454185 0)
(8.13108 -0.00045466 0)
(8.13199 -0.000455104 0)
(8.1329 -0.000455517 0)
(8.13381 -0.0004559 0)
(8.13472 -0.000456252 0)
(8.13563 -0.000456576 0)
(8.13654 -0.00045687 0)
(8.13745 -0.000457136 0)
(8.13836 -0.000457374 0)
(8.13928 -0.000457583 0)
(8.14019 -0.000457765 0)
(8.1411 -0.00045792 0)
(8.14202 -0.000458048 0)
(8.14293 -0.00045815 0)
(8.14385 -0.000458226 0)
(8.14476 -0.000458277 0)
(8.14568 -0.000458302 0)
(8.14659 -0.000458302 0)
(8.14751 -0.000458278 0)
(8.14842 -0.000458229 0)
(8.14933 -0.000458157 0)
(8.15025 -0.000458061 0)
(8.15116 -0.000457943 0)
(8.15208 -0.000457801 0)
(8.15299 -0.000457637 0)
(8.1539 -0.000457451 0)
(8.15482 -0.000457244 0)
(8.15573 -0.000457015 0)
(8.15664 -0.000456764 0)
(8.15755 -0.000456493 0)
(8.15846 -0.000456202 0)
(8.15938 -0.00045589 0)
(8.16028 -0.000455559 0)
(8.16119 -0.000455208 0)
(8.1621 -0.000454837 0)
(8.16301 -0.000454448 0)
(8.16392 -0.000454039 0)
(8.16482 -0.000453613 0)
(8.16573 -0.000453168 0)
(8.16663 -0.000452705 0)
(8.16754 -0.000452224 0)
(8.16844 -0.000451726 0)
(8.16934 -0.00045121 0)
(8.17024 -0.000450677 0)
(8.17114 -0.000450128 0)
(8.17204 -0.000449561 0)
(8.17293 -0.000448978 0)
(8.17383 -0.000448379 0)
(8.17472 -0.000447764 0)
(8.17562 -0.000447132 0)
(8.17651 -0.000446484 0)
(8.1774 -0.000445821 0)
(8.17829 -0.000445142 0)
(8.17918 -0.000444447 0)
(8.18007 -0.000443736 0)
(8.18095 -0.00044301 0)
(8.18183 -0.000442268 0)
(8.18272 -0.00044151 0)
(8.1836 -0.000440737 0)
(8.18448 -0.000439949 0)
(8.18535 -0.000439144 0)
(8.18623 -0.000438323 0)
(8.18711 -0.000437487 0)
(8.18798 -0.000436634 0)
(8.18885 -0.000435764 0)
(8.18972 -0.000434878 0)
(8.19059 -0.000433974 0)
(8.19145 -0.000433053 0)
(8.19232 -0.000432114 0)
(8.19318 -0.000431156 0)
(8.19404 -0.000430178 0)
(8.1949 -0.000429181 0)
(8.19575 -0.000428163 0)
(8.19661 -0.000427123 0)
(8.19746 -0.000426061 0)
(8.19831 -0.000424974 0)
(8.19916 -0.000423861 0)
(8.2 -0.000422722 0)
(8.20084 -0.000421554 0)
(8.20168 -0.000420354 0)
(8.20252 -0.00041912 0)
(8.20336 -0.00041785 0)
(8.20419 -0.00041654 0)
(8.20502 -0.000415184 0)
(8.20585 -0.000413784 0)
(8.20668 -0.000412296 0)
(8.2075 -0.00041088 0)
(8.20833 -0.00040878 0)
(8.20908 -0.000409406 0)
(8.21018 -0.000397129 0)
(9.89636 0.592428 0)
(9.64868 0.329307 0)
(9.44654 0.219669 0)
(9.30553 0.153639 0)
(9.19287 0.111411 0)
(9.10032 0.0866491 0)
(9.02652 0.0711004 0)
(8.96656 0.0601997 0)
(8.91599 0.0522246 0)
(8.87242 0.0462133 0)
(8.83435 0.041499 0)
(8.80061 0.0376829 0)
(8.77033 0.0345274 0)
(8.74289 0.0318721 0)
(8.71781 0.0296036 0)
(8.69472 0.027641 0)
(8.67334 0.0259253 0)
(8.65344 0.0244116 0)
(8.63483 0.0230656 0)
(8.61735 0.0218602 0)
(8.60088 0.0207742 0)
(8.58531 0.0197902 0)
(8.57055 0.0188941 0)
(8.55652 0.0180745 0)
(8.54316 0.0173217 0)
(8.5304 0.0166276 0)
(8.51819 0.0159855 0)
(8.5065 0.0153896 0)
(8.49528 0.0148348 0)
(8.48449 0.014317 0)
(8.47411 0.0138325 0)
(8.4641 0.0133779 0)
(8.45445 0.0129507 0)
(8.44513 0.0125481 0)
(8.43611 0.0121682 0)
(8.42739 0.0118089 0)
(8.41894 0.0114685 0)
(8.41075 0.0111456 0)
(8.4028 0.0108387 0)
(8.39508 0.0105466 0)
(8.38759 0.0102683 0)
(8.3803 0.0100026 0)
(8.37321 0.00974881 0)
(8.36631 0.00950599 0)
(8.35959 0.00927342 0)
(8.35304 0.00905043 0)
(8.34666 0.00883639 0)
(8.34043 0.00863075 0)
(8.33436 0.00843298 0)
(8.32843 0.00824261 0)
(8.32264 0.00805919 0)
(8.31699 0.00788233 0)
(8.31146 0.00771164 0)
(8.30606 0.00754678 0)
(8.30078 0.00738743 0)
(8.29561 0.0072333 0)
(8.29056 0.0070841 0)
(8.28561 0.00693959 0)
(8.28077 0.00679951 0)
(8.27603 0.00666365 0)
(8.27139 0.00653181 0)
(8.26684 0.00640377 0)
(8.26238 0.00627937 0)
(8.25802 0.00615843 0)
(8.25373 0.00604079 0)
(8.24954 0.0059263 0)
(8.24542 0.00581482 0)
(8.24139 0.00570621 0)
(8.23743 0.00560035 0)
(8.23354 0.00549713 0)
(8.22973 0.00539642 0)
(8.226 0.00529813 0)
(8.22233 0.00520215 0)
(8.21873 0.00510839 0)
(8.21519 0.00501676 0)
(8.21172 0.00492717 0)
(8.20832 0.00483955 0)
(8.20497 0.00475382 0)
(8.20169 0.0046699 0)
(8.19846 0.00458774 0)
(8.19529 0.00450725 0)
(8.19218 0.00442839 0)
(8.18912 0.00435108 0)
(8.18612 0.00427528 0)
(8.18317 0.00420093 0)
(8.18028 0.00412798 0)
(8.17743 0.00405638 0)
(8.17464 0.00398608 0)
(8.17189 0.00391704 0)
(8.16919 0.00384922 0)
(8.16654 0.00378257 0)
(8.16394 0.00371706 0)
(8.16138 0.00365264 0)
(8.15886 0.00358929 0)
(8.15639 0.00352696 0)
(8.15397 0.00346563 0)
(8.15158 0.00340526 0)
(8.14924 0.00334582 0)
(8.14694 0.00328729 0)
(8.14468 0.00322963 0)
(8.14246 0.00317282 0)
(8.14028 0.00311684 0)
(8.13814 0.00306165 0)
(8.13603 0.00300724 0)
(8.13396 0.00295357 0)
(8.13193 0.00290064 0)
(8.12994 0.00284841 0)
(8.12798 0.00279687 0)
(8.12606 0.002746 0)
(8.12418 0.00269578 0)
(8.12233 0.00264619 0)
(8.12051 0.00259721 0)
(8.11872 0.00254883 0)
(8.11697 0.00250103 0)
(8.11526 0.0024538 0)
(8.11357 0.00240711 0)
(8.11192 0.00236096 0)
(8.1103 0.00231533 0)
(8.10871 0.0022702 0)
(8.10715 0.00222558 0)
(8.10562 0.00218143 0)
(8.10412 0.00213776 0)
(8.10265 0.00209454 0)
(8.10121 0.00205177 0)
(8.0998 0.00200944 0)
(8.09842 0.00196754 0)
(8.09707 0.00192606 0)
(8.09575 0.00188498 0)
(8.09445 0.0018443 0)
(8.09319 0.00180401 0)
(8.09195 0.0017641 0)
(8.09073 0.00172457 0)
(8.08955 0.0016854 0)
(8.08839 0.0016466 0)
(8.08726 0.00160814 0)
(8.08615 0.00157003 0)
(8.08507 0.00153226 0)
(8.08402 0.00149482 0)
(8.08299 0.0014577 0)
(8.08198 0.00142091 0)
(8.08101 0.00138443 0)
(8.08005 0.00134827 0)
(8.07912 0.00131241 0)
(8.07822 0.00127685 0)
(8.07734 0.00124159 0)
(8.07648 0.00120662 0)
(8.07565 0.00117194 0)
(8.07484 0.00113754 0)
(8.07405 0.00110343 0)
(8.07329 0.0010696 0)
(8.07255 0.00103604 0)
(8.07184 0.00100276 0)
(8.07114 0.000969742 0)
(8.07047 0.000936995 0)
(8.06982 0.000904514 0)
(8.06919 0.000872297 0)
(8.06859 0.000840341 0)
(8.068 0.000808644 0)
(8.06744 0.000777206 0)
(8.0669 0.000746025 0)
(8.06638 0.000715098 0)
(8.06588 0.000684426 0)
(8.0654 0.000654007 0)
(8.06495 0.00062384 0)
(8.06451 0.000593923 0)
(8.06409 0.000564258 0)
(8.06369 0.000534842 0)
(8.06332 0.000505675 0)
(8.06296 0.000476758 0)
(8.06262 0.000448089 0)
(8.0623 0.000419668 0)
(8.06201 0.000391495 0)
(8.06173 0.00036357 0)
(8.06146 0.000335894 0)
(8.06122 0.000308465 0)
(8.061 0.000281284 0)
(8.06079 0.000254351 0)
(8.0606 0.000227667 0)
(8.06044 0.000201231 0)
(8.06028 0.000175044 0)
(8.06015 0.000149106 0)
(8.06003 0.000123417 0)
(8.05993 9.79772e-05 0)
(8.05985 7.27876e-05 0)
(8.05979 4.78482e-05 0)
(8.05974 2.31592e-05 0)
(8.05971 -1.27905e-06 0)
(8.05969 -2.54662e-05 0)
(8.0597 -4.9402e-05 0)
(8.05971 -7.30862e-05 0)
(8.05975 -9.65185e-05 0)
(8.0598 -0.000119699 0)
(8.05986 -0.000142627 0)
(8.05994 -0.000165302 0)
(8.06004 -0.000187725 0)
(8.06015 -0.000209895 0)
(8.06027 -0.000231812 0)
(8.06041 -0.000253476 0)
(8.06057 -0.000274888 0)
(8.06074 -0.000296047 0)
(8.06092 -0.000316954 0)
(8.06112 -0.000337608 0)
(8.06133 -0.00035801 0)
(8.06156 -0.00037816 0)
(8.0618 -0.000398059 0)
(8.06205 -0.000417706 0)
(8.06231 -0.000437103 0)
(8.06259 -0.00045625 0)
(8.06288 -0.000475147 0)
(8.06319 -0.000493796 0)
(8.0635 -0.000512196 0)
(8.06383 -0.000530349 0)
(8.06417 -0.000548255 0)
(8.06453 -0.000565916 0)
(8.06489 -0.000583332 0)
(8.06527 -0.000600504 0)
(8.06566 -0.000617433 0)
(8.06606 -0.000634121 0)
(8.06647 -0.000650568 0)
(8.06689 -0.000666776 0)
(8.06732 -0.000682746 0)
(8.06777 -0.00069848 0)
(8.06822 -0.000713978 0)
(8.06869 -0.000729242 0)
(8.06916 -0.000744274 0)
(8.06965 -0.000759076 0)
(8.07014 -0.000773647 0)
(8.07065 -0.000787991 0)
(8.07116 -0.000802109 0)
(8.07168 -0.000816003 0)
(8.07222 -0.000829674 0)
(8.07276 -0.000843123 0)
(8.07331 -0.000856354 0)
(8.07387 -0.000869367 0)
(8.07444 -0.000882164 0)
(8.07502 -0.000894747 0)
(8.0756 -0.000907118 0)
(8.0762 -0.000919279 0)
(8.0768 -0.000931231 0)
(8.07741 -0.000942977 0)
(8.07803 -0.000954519 0)
(8.07866 -0.000965857 0)
(8.07929 -0.000976995 0)
(8.07993 -0.000987934 0)
(8.08058 -0.000998677 0)
(8.08123 -0.00100922 0)
(8.0819 -0.00101958 0)
(8.08257 -0.00102974 0)
(8.08324 -0.00103971 0)
(8.08393 -0.0010495 0)
(8.08462 -0.0010591 0)
(8.08531 -0.00106852 0)
(8.08602 -0.00107775 0)
(8.08672 -0.00108681 0)
(8.08744 -0.00109569 0)
(8.08816 -0.00110439 0)
(8.08889 -0.00111292 0)
(8.08962 -0.00112127 0)
(8.09036 -0.00112945 0)
(8.0911 -0.00113747 0)
(8.09185 -0.00114532 0)
(8.0926 -0.001153 0)
(8.09336 -0.00116052 0)
(8.09413 -0.00116788 0)
(8.0949 -0.00117508 0)
(8.09567 -0.00118212 0)
(8.09645 -0.001189 0)
(8.09723 -0.00119573 0)
(8.09802 -0.0012023 0)
(8.09882 -0.00120872 0)
(8.09961 -0.001215 0)
(8.10041 -0.00122112 0)
(8.10122 -0.0012271 0)
(8.10203 -0.00123293 0)
(8.10284 -0.00123862 0)
(8.10366 -0.00124417 0)
(8.10448 -0.00124957 0)
(8.1053 -0.00125484 0)
(8.10613 -0.00125997 0)
(8.10696 -0.00126496 0)
(8.1078 -0.00126982 0)
(8.10863 -0.00127454 0)
(8.10948 -0.00127914 0)
(8.11032 -0.0012836 0)
(8.11117 -0.00128793 0)
(8.11202 -0.00129214 0)
(8.11287 -0.00129622 0)
(8.11373 -0.00130017 0)
(8.11458 -0.00130401 0)
(8.11544 -0.00130772 0)
(8.11631 -0.00131131 0)
(8.11717 -0.00131478 0)
(8.11804 -0.00131813 0)
(8.11891 -0.00132137 0)
(8.11979 -0.00132449 0)
(8.12066 -0.00132749 0)
(8.12154 -0.00133039 0)
(8.12242 -0.00133317 0)
(8.1233 -0.00133585 0)
(8.12418 -0.00133841 0)
(8.12506 -0.00134087 0)
(8.12595 -0.00134322 0)
(8.12684 -0.00134547 0)
(8.12772 -0.00134761 0)
(8.12862 -0.00134965 0)
(8.12951 -0.00135159 0)
(8.1304 -0.00135343 0)
(8.13129 -0.00135517 0)
(8.13219 -0.00135682 0)
(8.13309 -0.00135837 0)
(8.13398 -0.00135982 0)
(8.13488 -0.00136118 0)
(8.13578 -0.00136245 0)
(8.13668 -0.00136363 0)
(8.13758 -0.00136471 0)
(8.13849 -0.00136571 0)
(8.13939 -0.00136662 0)
(8.14029 -0.00136745 0)
(8.1412 -0.00136819 0)
(8.1421 -0.00136884 0)
(8.14301 -0.00136942 0)
(8.14391 -0.00136991 0)
(8.14482 -0.00137032 0)
(8.14572 -0.00137065 0)
(8.14663 -0.0013709 0)
(8.14754 -0.00137108 0)
(8.14844 -0.00137118 0)
(8.14935 -0.00137121 0)
(8.15026 -0.00137116 0)
(8.15116 -0.00137104 0)
(8.15207 -0.00137085 0)
(8.15298 -0.00137058 0)
(8.15388 -0.00137025 0)
(8.15479 -0.00136985 0)
(8.15569 -0.00136938 0)
(8.1566 -0.00136885 0)
(8.1575 -0.00136825 0)
(8.15841 -0.00136758 0)
(8.15931 -0.00136686 0)
(8.16022 -0.00136607 0)
(8.16112 -0.00136521 0)
(8.16202 -0.0013643 0)
(8.16293 -0.00136333 0)
(8.16383 -0.0013623 0)
(8.16473 -0.00136121 0)
(8.16563 -0.00136006 0)
(8.16653 -0.00135886 0)
(8.16743 -0.0013576 0)
(8.16833 -0.00135628 0)
(8.16922 -0.00135491 0)
(8.17012 -0.00135349 0)
(8.17102 -0.00135202 0)
(8.17191 -0.00135049 0)
(8.1728 -0.00134891 0)
(8.1737 -0.00134728 0)
(8.17459 -0.0013456 0)
(8.17548 -0.00134388 0)
(8.17637 -0.0013421 0)
(8.17725 -0.00134027 0)
(8.17814 -0.00133839 0)
(8.17903 -0.00133647 0)
(8.17991 -0.0013345 0)
(8.18079 -0.00133248 0)
(8.18168 -0.00133041 0)
(8.18256 -0.0013283 0)
(8.18343 -0.00132614 0)
(8.18431 -0.00132393 0)
(8.18519 -0.00132168 0)
(8.18606 -0.00131938 0)
(8.18693 -0.00131703 0)
(8.18781 -0.00131463 0)
(8.18868 -0.00131219 0)
(8.18954 -0.0013097 0)
(8.19041 -0.00130715 0)
(8.19128 -0.00130456 0)
(8.19214 -0.00130192 0)
(8.193 -0.00129923 0)
(8.19386 -0.00129648 0)
(8.19472 -0.00129368 0)
(8.19557 -0.00129083 0)
(8.19643 -0.00128791 0)
(8.19728 -0.00128494 0)
(8.19813 -0.0012819 0)
(8.19898 -0.0012788 0)
(8.19982 -0.00127563 0)
(8.20067 -0.00127239 0)
(8.20151 -0.00126907 0)
(8.20235 -0.00126567 0)
(8.20319 -0.00126218 0)
(8.20402 -0.00125861 0)
(8.20486 -0.00125493 0)
(8.20569 -0.00125114 0)
(8.20651 -0.00124723 0)
(8.20734 -0.00124318 0)
(8.20816 -0.001239 0)
(8.20898 -0.0012346 0)
(8.2098 -0.00123019 0)
(8.21062 -0.00122466 0)
(8.21138 -0.00122248 0)
(8.21247 -0.00120175 0)
(9.94546 0.725989 0)
(9.82597 0.524082 0)
(9.67686 0.393795 0)
(9.54203 0.299195 0)
(9.42458 0.230721 0)
(9.32183 0.183518 0)
(9.23371 0.150473 0)
(9.15852 0.126349 0)
(9.09364 0.108291 0)
(9.03704 0.0944999 0)
(8.98724 0.083704 0)
(8.94303 0.0750511 0)
(8.90345 0.0679805 0)
(8.86771 0.0621057 0)
(8.83521 0.0571514 0)
(8.80548 0.052919 0)
(8.77813 0.0492625 0)
(8.75282 0.0460725 0)
(8.72931 0.0432652 0)
(8.70737 0.0407757 0)
(8.68682 0.0385526 0)
(8.66751 0.0365553 0)
(8.64931 0.0347508 0)
(8.63211 0.0331123 0)
(8.6158 0.0316176 0)
(8.60032 0.0302483 0)
(8.58558 0.0289891 0)
(8.57152 0.0278271 0)
(8.55809 0.0267512 0)
(8.54524 0.0257519 0)
(8.53292 0.0248212 0)
(8.52109 0.0239522 0)
(8.50972 0.0231387 0)
(8.49878 0.0223754 0)
(8.48824 0.0216576 0)
(8.47807 0.0209814 0)
(8.46825 0.020343 0)
(8.45876 0.0197393 0)
(8.44958 0.0191673 0)
(8.44069 0.0186246 0)
(8.43207 0.0181089 0)
(8.42372 0.0176181 0)
(8.41561 0.0171504 0)
(8.40774 0.0167041 0)
(8.40009 0.0162776 0)
(8.39266 0.0158697 0)
(8.38542 0.015479 0)
(8.37838 0.0151044 0)
(8.37153 0.014745 0)
(8.36485 0.0143996 0)
(8.35833 0.0140675 0)
(8.35198 0.0137479 0)
(8.34579 0.01344 0)
(8.33974 0.0131431 0)
(8.33384 0.0128566 0)
(8.32808 0.0125799 0)
(8.32244 0.0123126 0)
(8.31694 0.0120539 0)
(8.31156 0.0118036 0)
(8.30629 0.0115612 0)
(8.30115 0.0113263 0)
(8.29611 0.0110984 0)
(8.29118 0.0108773 0)
(8.28636 0.0106627 0)
(8.28163 0.0104541 0)
(8.277 0.0102514 0)
(8.27247 0.0100542 0)
(8.26803 0.00986229 0)
(8.26368 0.00967546 0)
(8.25941 0.00949347 0)
(8.25523 0.0093161 0)
(8.25113 0.00914316 0)
(8.24711 0.00897445 0)
(8.24317 0.0088098 0)
(8.2393 0.00864904 0)
(8.23551 0.00849201 0)
(8.23179 0.00833855 0)
(8.22814 0.00818854 0)
(8.22455 0.00804182 0)
(8.22103 0.00789828 0)
(8.21758 0.00775779 0)
(8.21419 0.00762023 0)
(8.21087 0.0074855 0)
(8.2076 0.00735349 0)
(8.2044 0.0072241 0)
(8.20125 0.00709723 0)
(8.19816 0.0069728 0)
(8.19512 0.00685071 0)
(8.19214 0.00673089 0)
(8.18921 0.00661326 0)
(8.18633 0.00649774 0)
(8.18351 0.00638426 0)
(8.18074 0.00627274 0)
(8.17801 0.00616314 0)
(8.17534 0.00605537 0)
(8.17271 0.00594938 0)
(8.17013 0.00584512 0)
(8.16759 0.00574252 0)
(8.1651 0.00564154 0)
(8.16266 0.00554212 0)
(8.16025 0.00544422 0)
(8.1579 0.00534778 0)
(8.15558 0.00525276 0)
(8.1533 0.00515913 0)
(8.15107 0.00506683 0)
(8.14887 0.00497583 0)
(8.14672 0.00488608 0)
(8.1446 0.00479756 0)
(8.14253 0.00471022 0)
(8.14049 0.00462404 0)
(8.13849 0.00453898 0)
(8.13652 0.004455 0)
(8.13459 0.00437208 0)
(8.1327 0.00429019 0)
(8.13085 0.0042093 0)
(8.12902 0.00412938 0)
(8.12724 0.00405041 0)
(8.12548 0.00397235 0)
(8.12376 0.0038952 0)
(8.12207 0.00381892 0)
(8.12042 0.00374349 0)
(8.1188 0.00366889 0)
(8.11721 0.00359511 0)
(8.11565 0.00352211 0)
(8.11412 0.00344988 0)
(8.11263 0.0033784 0)
(8.11116 0.00330766 0)
(8.10973 0.00323764 0)
(8.10832 0.00316832 0)
(8.10695 0.00309968 0)
(8.1056 0.00303172 0)
(8.10428 0.00296441 0)
(8.10299 0.00289774 0)
(8.10173 0.0028317 0)
(8.1005 0.00276628 0)
(8.09929 0.00270147 0)
(8.09812 0.00263724 0)
(8.09697 0.0025736 0)
(8.09584 0.00251053 0)
(8.09475 0.00244802 0)
(8.09367 0.00238607 0)
(8.09263 0.00232465 0)
(8.09161 0.00226377 0)
(8.09062 0.00220342 0)
(8.08965 0.00214358 0)
(8.08871 0.00208425 0)
(8.08779 0.00202543 0)
(8.0869 0.0019671 0)
(8.08603 0.00190927 0)
(8.08519 0.00185191 0)
(8.08437 0.00179504 0)
(8.08358 0.00173864 0)
(8.0828 0.00168271 0)
(8.08206 0.00162724 0)
(8.08133 0.00157223 0)
(8.08063 0.00151768 0)
(8.07995 0.00146358 0)
(8.07929 0.00140993 0)
(8.07866 0.00135673 0)
(8.07805 0.00130397 0)
(8.07746 0.00125164 0)
(8.07689 0.00119976 0)
(8.07634 0.00114831 0)
(8.07582 0.0010973 0)
(8.07531 0.00104672 0)
(8.07483 0.000996565 0)
(8.07437 0.000946843 0)
(8.07393 0.000897548 0)
(8.07351 0.000848681 0)
(8.07311 0.000800239 0)
(8.07273 0.000752223 0)
(8.07237 0.000704632 0)
(8.07203 0.000657465 0)
(8.07171 0.000610722 0)
(8.0714 0.000564403 0)
(8.07112 0.000518508 0)
(8.07086 0.000473036 0)
(8.07062 0.000427988 0)
(8.07039 0.000383364 0)
(8.07018 0.000339164 0)
(8.06999 0.000295388 0)
(8.06982 0.000252037 0)
(8.06967 0.00020911 0)
(8.06954 0.000166609 0)
(8.06942 0.000124533 0)
(8.06932 8.28823e-05 0)
(8.06924 4.1658e-05 0)
(8.06917 8.60083e-07 0)
(8.06912 -3.95111e-05 0)
(8.06909 -7.94552e-05 0)
(8.06907 -0.000118972 0)
(8.06908 -0.000158061 0)
(8.06909 -0.000196723 0)
(8.06913 -0.000234957 0)
(8.06917 -0.000272762 0)
(8.06924 -0.00031014 0)
(8.06932 -0.00034709 0)
(8.06941 -0.000383612 0)
(8.06952 -0.000419706 0)
(8.06965 -0.000455373 2.82876e-103)
(8.06979 -0.000490612 -2.82863e-103)
(8.06994 -0.000525426 0)
(8.07011 -0.000559813 0)
(8.07029 -0.000593774 0)
(8.07049 -0.00062731 0)
(8.0707 -0.000660423 0)
(8.07092 -0.000693112 0)
(8.07116 -0.000725379 0)
(8.07141 -0.000757225 0)
(8.07167 -0.000788651 0)
(8.07195 -0.000819658 0)
(8.07224 -0.000850248 0)
(8.07254 -0.000880422 0)
(8.07286 -0.000910181 0)
(8.07318 -0.000939528 0)
(8.07352 -0.000968464 0)
(8.07387 -0.000996991 0)
(8.07424 -0.00102511 0)
(8.07461 -0.00105282 0)
(8.075 -0.00108014 0)
(8.07539 -0.00110705 0)
(8.0758 -0.00113356 0)
(8.07622 -0.00115968 0)
(8.07665 -0.0011854 0)
(8.07709 -0.00121073 0)
(8.07754 -0.00123567 0)
(8.078 -0.00126023 0)
(8.07847 -0.0012844 0)
(8.07895 -0.00130819 0)
(8.07944 -0.00133161 0)
(8.07994 -0.00135465 0)
(8.08045 -0.00137732 0)
(8.08097 -0.00139961 0)
(8.0815 -0.00142155 0)
(8.08203 -0.00144312 0)
(8.08258 -0.00146433 0)
(8.08313 -0.00148518 0)
(8.0837 -0.00150568 0)
(8.08427 -0.00152583 0)
(8.08485 -0.00154564 0)
(8.08544 -0.0015651 0)
(8.08603 -0.00158421 0)
(8.08664 -0.00160299 0)
(8.08725 -0.00162144 0)
(8.08787 -0.00163956 0)
(8.08849 -0.00165734 0)
(8.08913 -0.00167481 0)
(8.08977 -0.00169195 0)
(8.09042 -0.00170877 0)
(8.09107 -0.00172528 0)
(8.09174 -0.00174148 0)
(8.0924 -0.00175737 0)
(8.09308 -0.00177295 0)
(8.09376 -0.00178824 0)
(8.09445 -0.00180322 0)
(8.09514 -0.00181791 0)
(8.09584 -0.0018323 0)
(8.09655 -0.00184641 0)
(8.09726 -0.00186023 0)
(8.09798 -0.00187376 0)
(8.0987 -0.00188701 0)
(8.09943 -0.00189999 0)
(8.10016 -0.00191269 0)
(8.1009 -0.00192513 0)
(8.10165 -0.00193729 0)
(8.1024 -0.00194918 0)
(8.10315 -0.00196082 0)
(8.10391 -0.00197219 0)
(8.10467 -0.00198331 0)
(8.10544 -0.00199417 0)
(8.10622 -0.00200478 0)
(8.10699 -0.00201514 0)
(8.10778 -0.00202525 0)
(8.10856 -0.00203512 0)
(8.10935 -0.00204475 0)
(8.11014 -0.00205414 0)
(8.11094 -0.00206329 0)
(8.11174 -0.00207221 0)
(8.11255 -0.0020809 0)
(8.11336 -0.00208936 0)
(8.11417 -0.0020976 0)
(8.11499 -0.00210561 0)
(8.11581 -0.0021134 0)
(8.11663 -0.00212097 0)
(8.11745 -0.00212833 0)
(8.11828 -0.00213547 0)
(8.11911 -0.0021424 0)
(8.11995 -0.00214912 0)
(8.12079 -0.00215563 0)
(8.12163 -0.00216194 0)
(8.12247 -0.00216805 0)
(8.12331 -0.00217396 0)
(8.12416 -0.00217967 0)
(8.12501 -0.00218518 0)
(8.12587 -0.0021905 0)
(8.12672 -0.00219563 0)
(8.12758 -0.00220057 0)
(8.12844 -0.00220533 0)
(8.1293 -0.0022099 0)
(8.13016 -0.00221428 0)
(8.13102 -0.00221849 0)
(8.13189 -0.00222252 0)
(8.13276 -0.00222637 0)
(8.13363 -0.00223006 0)
(8.1345 -0.00223356 0)
(8.13537 -0.0022369 0)
(8.13625 -0.00224008 0)
(8.13712 -0.00224308 0)
(8.138 -0.00224593 0)
(8.13888 -0.00224861 0)
(8.13976 -0.00225113 0)
(8.14064 -0.0022535 0)
(8.14152 -0.00225571 0)
(8.14241 -0.00225777 0)
(8.14329 -0.00225968 0)
(8.14417 -0.00226144 0)
(8.14506 -0.00226306 0)
(8.14595 -0.00226453 0)
(8.14683 -0.00226585 0)
(8.14772 -0.00226704 0)
(8.14861 -0.00226808 0)
(8.1495 -0.00226899 0)
(8.15038 -0.00226977 0)
(8.15127 -0.00227041 0)
(8.15216 -0.00227092 0)
(8.15305 -0.0022713 0)
(8.15394 -0.00227156 0)
(8.15483 -0.00227169 0)
(8.15572 -0.00227169 0)
(8.15662 -0.00227157 0)
(8.15751 -0.00227134 0)
(8.1584 -0.00227098 0)
(8.15929 -0.00227051 0)
(8.16018 -0.00226992 0)
(8.16107 -0.00226922 0)
(8.16196 -0.00226841 0)
(8.16285 -0.00226749 0)
(8.16374 -0.00226646 0)
(8.16463 -0.00226532 0)
(8.16552 -0.00226408 0)
(8.1664 -0.00226274 0)
(8.16729 -0.00226129 0)
(8.16818 -0.00225974 0)
(8.16907 -0.0022581 0)
(8.16995 -0.00225636 0)
(8.17084 -0.00225452 0)
(8.17172 -0.00225258 0)
(8.17261 -0.00225056 0)
(8.17349 -0.00224844 0)
(8.17437 -0.00224623 0)
(8.17526 -0.00224393 0)
(8.17614 -0.00224154 0)
(8.17702 -0.00223906 0)
(8.1779 -0.0022365 0)
(8.17878 -0.00223385 0)
(8.17965 -0.00223112 0)
(8.18053 -0.0022283 0)
(8.18141 -0.0022254 0)
(8.18228 -0.00222242 0)
(8.18315 -0.00221936 0)
(8.18403 -0.00221622 0)
(8.1849 -0.002213 0)
(8.18577 -0.00220969 0)
(8.18663 -0.00220631 0)
(8.1875 -0.00220285 0)
(8.18837 -0.00219931 0)
(8.18923 -0.0021957 0)
(8.19009 -0.002192 0)
(8.19096 -0.00218823 0)
(8.19182 -0.00218437 0)
(8.19268 -0.00218044 0)
(8.19353 -0.00217643 0)
(8.19439 -0.00217233 0)
(8.19524 -0.00216815 0)
(8.19609 -0.00216389 0)
(8.19695 -0.00215955 0)
(8.19779 -0.00215512 0)
(8.19864 -0.0021506 0)
(8.19949 -0.00214599 0)
(8.20033 -0.00214129 0)
(8.20117 -0.00213649 0)
(8.20201 -0.00213159 0)
(8.20285 -0.00212659 0)
(8.20369 -0.00212148 0)
(8.20452 -0.00211626 0)
(8.20535 -0.00211091 0)
(8.20618 -0.00210544 0)
(8.20701 -0.00209983 0)
(8.20784 -0.00209409 0)
(8.20866 -0.00208818 0)
(8.20948 -0.00208211 0)
(8.2103 -0.00207586 0)
(8.21112 -0.00206942 0)
(8.21193 -0.00206275 0)
(8.21274 -0.00205585 0)
(8.21355 -0.00204865 0)
(8.21436 -0.00204119 0)
(8.21517 -0.00203295 0)
(8.21592 -0.00202524 0)
(8.21699 -0.0020087 0)
(9.95588 0.782308 0)
(9.89615 0.625112 0)
(9.80208 0.503554 0)
(9.70137 0.409242 0)
(9.60377 0.335327 0)
(9.51099 0.278482 0)
(9.42517 0.234871 0)
(9.34747 0.200927 0)
(9.2775 0.174177 0)
(9.21448 0.152873 0)
(9.15765 0.135685 0)
(9.10626 0.121622 0)
(9.05962 0.109967 0)
(9.0171 0.10019 0)
(8.97816 0.0918963 0)
(8.94235 0.0847884 0)
(8.90929 0.0786395 0)
(8.87865 0.0732748 0)
(8.85014 0.0685582 0)
(8.82354 0.0643822 0)
(8.79863 0.0606614 0)
(8.77524 0.0573268 0)
(8.75321 0.0543224 0)
(8.73243 0.0516022 0)
(8.71276 0.0491283 0)
(8.69411 0.0468692 0)
(8.67639 0.0447981 0)
(8.65953 0.0428928 0)
(8.64345 0.0411341 0)
(8.62809 0.0395059 0)
(8.61341 0.037994 0)
(8.59933 0.0365864 0)
(8.58584 0.0352726 0)
(8.57288 0.0340435 0)
(8.56041 0.032891 0)