/*--------------------------------*- C++ -*----------------------------------*\
| =========                 |                                                 |
| \\      /  F ield         | OpenFOAM: The Open Source CFD Toolbox           |
|  \\    /   O peration     | Version:  2506                                  |
|   \\  /    A nd           | Website:  www.openfoam.com                      |
|    \\/     M anipulation  |                                                 |
\*---------------------------------------------------------------------------*/
FoamFile
{
    version     2.0;
    format      ascii;
    arch        "LSB;label=32;scalar=64";
    class       volScalarField;
    location    "100";
    object      epsilon;
}
// * * * * * * * * * * * * * * * * * * * * * * * * * * * * * * * * * * * * * //

dimensions      [0 2 -3 0 0 0 0];

internalField   nonuniform List<scalar> 
131949
(
0.427362
0.492018
0.494163
0.486953
0.480214
0.474369
0.469169
0.464569
0.460485
0.456805
0.453444
0.450337
0.447437
0.444704
0.44211
0.439631
0.437247
0.434944
0.432709
0.430532
0.428406
0.426324
0.424282
0.422277
0.420306
0.418367
0.416459
0.41458
0.412731
0.41091
0.409116
0.407349
0.405608
0.403891
0.402196
0.400523
0.398869
0.397233
0.395612
0.394006
0.392412
0.39083
0.389257
0.387692
0.386135
0.384584
0.383038
0.381498
0.379961
0.378428
0.376898
0.375369
0.373842
0.372316
0.370788
0.369258
0.367725
0.366187
0.364641
0.363087
0.361521
0.359942
0.358347
0.356734
0.355101
0.353444
0.351762
0.350052
0.348312
0.346541
0.344737
0.342899
0.341027
0.33912
0.337179
0.335207
0.333204
0.331175
0.329123
0.327054
0.324974
0.322889
0.320807
0.318736
0.316685
0.314664
0.312683
0.31075
0.308875
0.307067
0.305333
0.303679
0.302111
0.300633
0.299245
0.297947
0.296736
0.295607
0.294554
0.293567
0.292635
0.291746
0.290885
0.290039
0.289191
0.288326
0.287429
0.286485
0.285479
0.284399
0.283233
0.281971
0.280605
0.279128
0.277536
0.275826
0.273996
0.272047
0.269981
0.267802
0.265514
0.263124
0.260639
0.258066
0.255415
0.252694
0.249913
0.247081
0.24421
0.241309
0.238389
0.235459
0.23253
0.229611
0.226711
0.22384
0.221006
0.218217
0.21548
0.212802
0.21019
0.207649
0.205184
0.2028
0.2005
0.198287
0.196163
0.19413
0.19219
0.190341
0.188585
0.18692
0.185345
0.183859
0.182459
0.181143
0.179909
0.178753
0.177672
0.176663
0.175723
0.174849
0.174036
0.173282
0.172582
0.171935
0.171335
0.170781
0.17027
0.169797
0.169361
0.168959
0.168588
0.168246
0.167931
0.16764
0.167372
0.167124
0.166896
0.166685
0.166491
0.166311
0.166144
0.16599
0.165847
0.165715
0.165592
0.165477
0.165371
0.165271
0.165178
0.165091
0.16501
0.164934
0.164862
0.164795
0.164731
0.164671
0.164615
0.164561
0.164511
0.164463
0.164417
0.164373
0.164332
0.164293
0.164255
0.164219
0.164185
0.164152
0.164121
0.164091
0.164062
0.164035
0.164008
0.163983
0.163959
0.163935
0.163913
0.163891
0.163871
0.163851
0.163832
0.163813
0.163796
0.163779
0.163762
0.163747
0.163732
0.163717
0.163704
0.16369
0.163678
0.163665
0.163654
0.163642
0.163632
0.163621
0.163611
0.163602
0.163593
0.163584
0.163576
0.163568
0.16356
0.163553
0.163546
0.163539
0.163533
0.163526
0.163521
0.163515
0.16351
0.163505
0.1635
0.163495
0.163491
0.163487
0.163483
0.163479
0.163475
0.163472
0.163469
0.163465
0.163462
0.16346
0.163457
0.163455
0.163452
0.16345
0.163448
0.163446
0.163444
0.163442
0.163441
0.163439
0.163438
0.163436
0.163435
0.163434
0.163433
0.163432
0.163431
0.16343
0.163429
0.163429
0.163428
0.163428
0.163428
0.163427
0.163427
0.163427
0.163427
0.163427
0.163427
0.163427
0.163428
0.163428
0.163428
0.163429
0.16343
0.16343
0.163431
0.163432
0.163433
0.163434
0.163435
0.163437
0.163438
0.163439
0.163441
0.163443
0.163445
0.163446
0.163448
0.163451
0.163453
0.163455
0.163458
0.16346
0.163463
0.163466
0.163469
0.163472
0.163476
0.163479
0.163483
0.163487
0.163491
0.163495
0.163499
0.163503
0.163508
0.163513
0.163518
0.163523
0.163529
0.163535
0.163541
0.163547
0.163553
0.16356
0.163567
0.163574
0.163581
0.163589
0.163597
0.163605
0.163614
0.163622
0.163632
0.163641
0.163651
0.163661
0.163672
0.163683
0.163694
0.163706
0.163718
0.16373
0.163743
0.163756
0.16377
0.163784
0.163799
0.163814
0.16383
0.163846
0.163863
0.16388
0.163898
0.163917
0.163936
0.163956
0.163976
0.163997
0.164019
0.164042
0.164065
0.164089
0.164114
0.164139
0.164166
0.164193
0.164221
0.164251
0.164281
0.164312
0.164344
0.164377
0.164412
0.164447
0.164484
0.164521
0.164561
0.164601
0.164642
0.164683
0.164718
0.164702
0.270384
0.330549
0.374961
0.402496
0.419625
0.430031
0.435901
0.438948
0.440283
0.440549
0.440128
0.439264
0.43811
0.436763
0.435285
0.433717
0.432087
0.430414
0.42871
0.426986
0.425248
0.423502
0.421752
0.420002
0.418256
0.416516
0.414786
0.413067
0.411361
0.409669
0.407993
0.406333
0.404689
0.40306
0.401447
0.399848
0.398261
0.396687
0.395123
0.393569
0.392022
0.390482
0.388947
0.387418
0.385892
0.38437
0.382851
0.381334
0.379819
0.378306
0.376793
0.37528
0.373767
0.372252
0.370735
0.369213
0.367686
0.366152
0.364608
0.363054
0.361486
0.359902
0.3583
0.356677
0.35503
0.353358
0.351657
0.349925
0.34816
0.34636
0.344524
0.34265
0.340737
0.338787
0.336798
0.334774
0.332716
0.330628
0.328514
0.326379
0.324229
0.322071
0.319915
0.317767
0.315639
0.313539
0.311478
0.309466
0.307513
0.305629
0.30382
0.302096
0.30046
0.298918
0.29747
0.296117
0.294856
0.293682
0.292589
0.291566
0.290603
0.289687
0.288803
0.287937
0.287072
0.286193
0.285284
0.284329
0.283314
0.282226
0.281053
0.279785
0.278413
0.27693
0.275333
0.273618
0.271784
0.269832
0.267764
0.265584
0.263297
0.26091
0.258429
0.255864
0.253222
0.250513
0.247747
0.244934
0.242085
0.239209
0.236317
0.23342
0.230526
0.227646
0.224788
0.221962
0.219176
0.216437
0.213754
0.211131
0.208576
0.206094
0.20369
0.201366
0.199128
0.196976
0.194914
0.192943
0.191062
0.189273
0.187575
0.185967
0.184447
0.183014
0.181665
0.180398
0.179211
0.178099
0.177061
0.176092
0.17519
0.174351
0.173572
0.172849
0.172179
0.171559
0.170985
0.170454
0.169964
0.169512
0.169094
0.168709
0.168354
0.168026
0.167724
0.167445
0.167188
0.166951
0.166732
0.166529
0.166342
0.166169
0.166009
0.165861
0.165723
0.165596
0.165477
0.165366
0.165263
0.165167
0.165077
0.164993
0.164914
0.16484
0.16477
0.164705
0.164643
0.164584
0.164529
0.164477
0.164428
0.164381
0.164336
0.164293
0.164253
0.164214
0.164178
0.164143
0.164109
0.164077
0.164046
0.164017
0.163988
0.163961
0.163936
0.163911
0.163887
0.163864
0.163842
0.163821
0.1638
0.163781
0.163762
0.163744
0.163727
0.16371
0.163694
0.163679
0.163664
0.16365
0.163637
0.163623
0.163611
0.163599
0.163588
0.163576
0.163566
0.163556
0.163546
0.163537
0.163528
0.163519
0.163511
0.163503
0.163496
0.163489
0.163482
0.163475
0.163469
0.163463
0.163457
0.163452
0.163447
0.163442
0.163437
0.163433
0.163428
0.163424
0.16342
0.163417
0.163413
0.16341
0.163407
0.163404
0.163401
0.163398
0.163396
0.163393
0.163391
0.163389
0.163387
0.163385
0.163383
0.163381
0.16338
0.163378
0.163377
0.163376
0.163375
0.163374
0.163373
0.163372
0.163371
0.16337
0.16337
0.163369
0.163369
0.163368
0.163368
0.163368
0.163368
0.163367
0.163368
0.163368
0.163368
0.163368
0.163368
0.163369
0.163369
0.16337
0.163371
0.163372
0.163372
0.163373
0.163374
0.163376
0.163377
0.163378
0.16338
0.163381
0.163383
0.163385
0.163386
0.163388
0.16339
0.163393
0.163395
0.163397
0.1634
0.163403
0.163406
0.163409
0.163412
0.163415
0.163418
0.163422
0.163426
0.16343
0.163434
0.163438
0.163442
0.163447
0.163452
0.163457
0.163462
0.163467
0.163473
0.163479
0.163485
0.163491
0.163497
0.163504
0.163511
0.163518
0.163526
0.163534
0.163542
0.16355
0.163559
0.163568
0.163577
0.163587
0.163597
0.163607
0.163618
0.163629
0.16364
0.163652
0.163664
0.163677
0.16369
0.163703
0.163717
0.163732
0.163747
0.163762
0.163778
0.163795
0.163812
0.163829
0.163847
0.163866
0.163885
0.163905
0.163926
0.163947
0.163969
0.163992
0.164016
0.16404
0.164065
0.164091
0.164118
0.164145
0.164174
0.164203
0.164234
0.164265
0.164298
0.164331
0.164366
0.164402
0.164439
0.164477
0.164516
0.164557
0.164599
0.16464
0.164675
0.164661
0.228181
0.258022
0.288788
0.316183
0.339459
0.358551
0.373608
0.385212
0.394058
0.400735
0.40572
0.409391
0.412042
0.413897
0.415125
0.415858
0.416194
0.41621
0.415967
0.415512
0.414883
0.41411
0.413218
0.412229
0.411159
0.410024
0.408836
0.407605
0.40634
0.405047
0.403734
0.402405
0.401063
0.399711
0.398352
0.396986
0.395614
0.394237
0.392855
0.391468
0.390076
0.388678
0.387276
0.385869
0.384457
0.38304
0.381619
0.380193
0.378762
0.377327
0.375887
0.374442
0.372991
0.371535
0.370071
0.368599
0.367118
0.365625
0.364119
0.362597
0.361058
0.3595
0.357918
0.356312
0.354677
0.353012
0.351314
0.349579
0.347806
0.345993
0.344137
0.342236
0.340291
0.3383
0.336263
0.334182
0.332058
0.329894
0.327694
0.325463
0.323207
0.320932
0.318647
0.316359
0.31408
0.311818
0.309585
0.307391
0.305247
0.303164
0.30115
0.299214
0.297364
0.295605
0.293941
0.292373
0.290901
0.289522
0.288232
0.287021
0.285881
0.284802
0.283768
0.282768
0.281785
0.280804
0.279809
0.278787
0.277721
0.276598
0.275406
0.274135
0.272775
0.271318
0.269759
0.268094
0.266322
0.264441
0.262453
0.260362
0.258171
0.255886
0.253513
0.25106
0.248535
0.245946
0.243303
0.240616
0.237894
0.235146
0.232384
0.229616
0.226853
0.224102
0.221374
0.218677
0.216018
0.213405
0.210846
0.208346
0.205911
0.203546
0.201256
0.199045
0.196915
0.194869
0.192909
0.191035
0.189249
0.187551
0.185939
0.184413
0.182972
0.181614
0.180336
0.179136
0.178011
0.176959
0.175976
0.17506
0.174206
0.173413
0.172676
0.171992
0.171358
0.170772
0.170229
0.169727
0.169264
0.168836
0.168441
0.168077
0.167741
0.167431
0.167145
0.166881
0.166638
0.166413
0.166206
0.166014
0.165837
0.165673
0.165521
0.165381
0.16525
0.165129
0.165016
0.164911
0.164813
0.164721
0.164636
0.164556
0.164481
0.16441
0.164344
0.164281
0.164222
0.164167
0.164114
0.164064
0.164017
0.163972
0.16393
0.163889
0.163851
0.163814
0.163779
0.163745
0.163713
0.163683
0.163653
0.163625
0.163598
0.163573
0.163548
0.163524
0.163501
0.16348
0.163459
0.163439
0.163419
0.163401
0.163383
0.163366
0.16335
0.163334
0.163319
0.163304
0.16329
0.163277
0.163264
0.163252
0.16324
0.163229
0.163218
0.163208
0.163198
0.163188
0.163179
0.16317
0.163162
0.163154
0.163146
0.163139
0.163132
0.163126
0.163119
0.163113
0.163107
0.163102
0.163097
0.163092
0.163087
0.163082
0.163078
0.163074
0.16307
0.163066
0.163063
0.163059
0.163056
0.163053
0.163051
0.163048
0.163045
0.163043
0.163041
0.163039
0.163037
0.163035
0.163033
0.163031
0.16303
0.163028
0.163027
0.163026
0.163025
0.163024
0.163023
0.163022
0.163021
0.163021
0.16302
0.16302
0.163019
0.163019
0.163019
0.163018
0.163018
0.163018
0.163018
0.163019
0.163019
0.163019
0.163019
0.16302
0.16302
0.163021
0.163022
0.163023
0.163023
0.163024
0.163025
0.163027
0.163028
0.163029
0.16303
0.163032
0.163034
0.163035
0.163037
0.163039
0.163041
0.163043
0.163045
0.163048
0.16305
0.163053
0.163055
0.163058
0.163061
0.163064
0.163068
0.163071
0.163074
0.163078
0.163082
0.163086
0.16309
0.163094
0.163099
0.163104
0.163109
0.163114
0.163119
0.163124
0.16313
0.163136
0.163142
0.163148
0.163155
0.163162
0.163169
0.163176
0.163184
0.163191
0.1632
0.163208
0.163217
0.163226
0.163235
0.163245
0.163255
0.163265
0.163276
0.163287
0.163298
0.16331
0.163322
0.163335
0.163348
0.163361
0.163375
0.163389
0.163404
0.163419
0.163435
0.163452
0.163468
0.163486
0.163504
0.163522
0.163542
0.163562
0.163582
0.163603
0.163625
0.163648
0.163671
0.163695
0.16372
0.163745
0.163772
0.163799
0.163827
0.163856
0.163886
0.163918
0.16395
0.163983
0.164017
0.164052
0.164089
0.164127
0.164166
0.164206
0.164247
0.164288
0.164322
0.164309
0.214645
0.227087
0.242377
0.259315
0.276753
0.293734
0.309494
0.323626
0.336022
0.346725
0.355861
0.363589
0.370084
0.375509
0.380013
0.383728
0.386766
0.389225
0.391187
0.392722
0.39389
0.394743
0.395323
0.395669
0.395812
0.395781
0.395599
0.395288
0.394865
0.394346
0.393744
0.393068
0.39233
0.391535
0.390691
0.389803
0.388874
0.387908
0.386908
0.385877
0.384816
0.383728
0.382614
0.381477
0.380317
0.379136
0.377935
0.376716
0.37548
0.374228
0.37296
0.371677
0.370379
0.369066
0.367737
0.366392
0.365029
0.363648
0.362247
0.360824
0.359377
0.357903
0.356401
0.354867
0.353298
0.351693
0.350048
0.34836
0.346627
0.344846
0.343015
0.341132
0.339195
0.337202
0.335154
0.333051
0.330893
0.328683
0.326423
0.324117
0.321771
0.319391
0.316984
0.314558
0.312122
0.309687
0.307263
0.304861
0.302494
0.300171
0.297904
0.295703
0.293577
0.291534
0.289581
0.287721
0.285957
0.284289
0.282715
0.28123
0.279828
0.2785
0.277237
0.276025
0.274851
0.273702
0.272564
0.271421
0.27026
0.269067
0.26783
0.266536
0.265177
0.263743
0.262228
0.260626
0.258935
0.257152
0.255277
0.253312
0.251259
0.249123
0.246908
0.24462
0.242266
0.239854
0.237393
0.234889
0.232353
0.229793
0.227219
0.224638
0.222061
0.219495
0.21695
0.214432
0.211949
0.20951
0.207119
0.204784
0.202509
0.200299
0.198159
0.196092
0.194101
0.192189
0.190356
0.188605
0.186935
0.185347
0.18384
0.182414
0.181066
0.179796
0.178601
0.177479
0.176427
0.175443
0.174524
0.173667
0.172868
0.172126
0.171436
0.170796
0.170203
0.169654
0.169146
0.168677
0.168243
0.167842
0.167472
0.167131
0.166816
0.166526
0.166258
0.166011
0.165783
0.165572
0.165378
0.165198
0.165032
0.164878
0.164735
0.164603
0.164481
0.164367
0.164261
0.164162
0.16407
0.163985
0.163904
0.163829
0.163759
0.163692
0.16363
0.163572
0.163516
0.163464
0.163415
0.163368
0.163324
0.163282
0.163242
0.163204
0.163168
0.163134
0.163101
0.163069
0.163039
0.163011
0.162984
0.162957
0.162932
0.162908
0.162885
0.162863
0.162842
0.162822
0.162803
0.162784
0.162766
0.162749
0.162733
0.162717
0.162702
0.162687
0.162673
0.16266
0.162647
0.162635
0.162623
0.162612
0.162601
0.162591
0.162581
0.162572
0.162563
0.162554
0.162546
0.162538
0.16253
0.162523
0.162516
0.16251
0.162504
0.162498
0.162492
0.162487
0.162482
0.162477
0.162472
0.162468
0.162464
0.16246
0.162456
0.162453
0.162449
0.162446
0.162443
0.16244
0.162438
0.162435
0.162433
0.162431
0.162428
0.162427
0.162425
0.162423
0.162422
0.16242
0.162419
0.162418
0.162417
0.162416
0.162415
0.162414
0.162413
0.162412
0.162412
0.162411
0.162411
0.162411
0.16241
0.16241
0.16241
0.16241
0.16241
0.16241
0.162411
0.162411
0.162411
0.162412
0.162412
0.162413
0.162413
0.162414
0.162415
0.162416
0.162417
0.162418
0.162419
0.16242
0.162421
0.162423
0.162424
0.162426
0.162427
0.162429
0.162431
0.162433
0.162435
0.162437
0.162439
0.162441
0.162444
0.162446
0.162449
0.162452
0.162455
0.162458
0.162461
0.162464
0.162467
0.162471
0.162475
0.162479
0.162482
0.162487
0.162491
0.162495
0.1625
0.162505
0.16251
0.162515
0.16252
0.162526
0.162532
0.162538
0.162544
0.16255
0.162557
0.162564
0.162571
0.162578
0.162586
0.162593
0.162602
0.16261
0.162619
0.162628
0.162637
0.162647
0.162656
0.162667
0.162677
0.162688
0.1627
0.162711
0.162723
0.162736
0.162749
0.162762
0.162776
0.16279
0.162804
0.16282
0.162835
0.162851
0.162868
0.162885
0.162903
0.162921
0.16294
0.162959
0.16298
0.163
0.163022
0.163044
0.163067
0.16309
0.163115
0.16314
0.163166
0.163192
0.16322
0.163248
0.163278
0.163308
0.16334
0.163372
0.163405
0.16344
0.163475
0.163512
0.16355
0.163589
0.16363
0.16367
0.163703
0.16369
0.210109
0.215487
0.222499
0.231118
0.241073
0.251965
0.263314
0.274678
0.28572
0.296207
0.305987
0.314981
0.32316
0.330535
0.337136
0.343009
0.348207
0.352785
0.356797
0.360297
0.363333
0.365954
0.3682
0.370111
0.371723
0.373068
0.374175
0.375069
0.375774
0.37631
0.376695
0.376944
0.377072
0.377089
0.377005
0.376831
0.376572
0.376236
0.375828
0.375353
0.374816
0.374221
0.373572
0.372873
0.372126
0.371336
0.370504
0.369634
0.368729
0.367789
0.366818
0.365816
0.364785
0.363725
0.362637
0.36152
0.360375
0.359201
0.357996
0.356759
0.355488
0.354182
0.352839
0.351456
0.35003
0.34856
0.347041
0.345472
0.343849
0.34217
0.340432
0.338634
0.336771
0.334844
0.332851
0.33079
0.328662
0.326467
0.324208
0.321888
0.31951
0.317079
0.314603
0.312088
0.309543
0.306977
0.304402
0.301827
0.299266
0.296729
0.294229
0.291777
0.289385
0.287062
0.284818
0.282658
0.28059
0.278616
0.276738
0.274954
0.273262
0.271657
0.27013
0.268673
0.267275
0.265925
0.264609
0.263315
0.262029
0.260739
0.259431
0.258095
0.256718
0.255293
0.253811
0.252266
0.250653
0.248968
0.247209
0.245377
0.243472
0.241496
0.239453
0.237348
0.235186
0.232972
0.230713
0.228418
0.226092
0.223745
0.221383
0.219016
0.216651
0.214295
0.211957
0.209643
0.207361
0.205117
0.202917
0.200767
0.198672
0.196636
0.194664
0.192758
0.190921
0.189156
0.187464
0.185847
0.184304
0.182836
0.181443
0.180124
0.178877
0.177701
0.176594
0.175555
0.17458
0.173668
0.172816
0.172021
0.17128
0.170591
0.169951
0.169357
0.168806
0.168296
0.167823
0.167387
0.166983
0.166611
0.166266
0.165949
0.165656
0.165385
0.165136
0.164906
0.164693
0.164497
0.164316
0.164148
0.163993
0.16385
0.163717
0.163594
0.16348
0.163374
0.163275
0.163183
0.163098
0.163018
0.162943
0.162873
0.162808
0.162746
0.162688
0.162634
0.162582
0.162534
0.162488
0.162445
0.162404
0.162365
0.162328
0.162293
0.16226
0.162228
0.162198
0.162169
0.162141
0.162115
0.16209
0.162066
0.162043
0.162021
0.162
0.16198
0.161961
0.161942
0.161924
0.161908
0.161891
0.161876
0.161861
0.161847
0.161833
0.16182
0.161807
0.161796
0.161784
0.161773
0.161763
0.161753
0.161743
0.161734
0.161725
0.161717
0.161709
0.161701
0.161694
0.161687
0.161681
0.161674
0.161669
0.161663
0.161658
0.161652
0.161648
0.161643
0.161639
0.161635
0.161631
0.161627
0.161624
0.16162
0.161617
0.161614
0.161612
0.161609
0.161607
0.161605
0.161603
0.161601
0.161599
0.161597
0.161596
0.161594
0.161593
0.161592
0.161591
0.16159
0.161589
0.161588
0.161588
0.161587
0.161587
0.161586
0.161586
0.161586
0.161586
0.161586
0.161586
0.161586
0.161586
0.161586
0.161587
0.161587
0.161587
0.161588
0.161588
0.161589
0.16159
0.161591
0.161591
0.161592
0.161593
0.161594
0.161595
0.161597
0.161598
0.161599
0.161601
0.161602
0.161604
0.161605
0.161607
0.161609
0.161611
0.161613
0.161615
0.161617
0.161619
0.161622
0.161624
0.161627
0.161629
0.161632
0.161635
0.161638
0.161641
0.161644
0.161647
0.161651
0.161654
0.161658
0.161662
0.161666
0.16167
0.161674
0.161679
0.161683
0.161688
0.161693
0.161698
0.161703
0.161709
0.161714
0.16172
0.161726
0.161733
0.161739
0.161746
0.161753
0.16176
0.161767
0.161775
0.161783
0.161791
0.161799
0.161808
0.161817
0.161826
0.161836
0.161845
0.161856
0.161866
0.161877
0.161888
0.1619
0.161912
0.161924
0.161937
0.16195
0.161963
0.161977
0.161992
0.162006
0.162022
0.162038
0.162054
0.162071
0.162088
0.162106
0.162124
0.162144
0.162163
0.162183
0.162204
0.162226
0.162248
0.162271
0.162295
0.162319
0.162345
0.162371
0.162398
0.162425
0.162454
0.162484
0.162514
0.162545
0.162578
0.162611
0.162646
0.162682
0.162719
0.162757
0.162796
0.162834
0.162867
0.162854
0.208363
0.210908
0.214198
0.218355
0.223436
0.229408
0.236145
0.243461
0.251154
0.259034
0.266928
0.274695
0.282221
0.289425
0.296248
0.302656
0.30863
0.314163
0.319262
0.323938
0.328207
0.33209
0.335609
0.338788
0.341651
0.34422
0.346518
0.348567
0.350387
0.351997
0.353413
0.354651
0.355725
0.356648
0.357431
0.358083
0.358613
0.35903
0.35934
0.35955
0.359666
0.359694
0.359638
0.359505
0.359298
0.359023
0.358683
0.358283
0.357825
0.357314
0.356752
0.356142
0.355485
0.354783
0.354038
0.353249
0.352419
0.351545
0.350629
0.349669
0.348664
0.347613
0.346514
0.345366
0.344165
0.34291
0.341598
0.340227
0.338794
0.337295
0.335729
0.334093
0.332384
0.330599
0.328738
0.326799
0.324781
0.322683
0.320505
0.31825
0.31592
0.31352
0.311055
0.30853
0.305954
0.303336
0.300685
0.298012
0.295329
0.292648
0.289982
0.287343
0.284744
0.282197
0.279713
0.277301
0.274971
0.272728
0.270577
0.268522
0.266561
0.264694
0.262917
0.261223
0.259605
0.258054
0.256559
0.255109
0.253692
0.252295
0.250907
0.249517
0.248113
0.246685
0.245226
0.243726
0.242181
0.240584
0.238934
0.237228
0.235464
0.233645
0.231772
0.229846
0.227874
0.225857
0.223803
0.221717
0.219604
0.217472
0.215328
0.213178
0.211029
0.208888
0.206763
0.204658
0.202581
0.200538
0.198534
0.196574
0.194663
0.192805
0.191003
0.189262
0.187582
0.185967
0.184419
0.182937
0.181523
0.180177
0.178898
0.177687
0.176541
0.17546
0.174442
0.173485
0.172588
0.171747
0.170962
0.170228
0.169544
0.168908
0.168316
0.167767
0.167257
0.166785
0.166348
0.165943
0.16557
0.165224
0.164905
0.16461
0.164338
0.164087
0.163856
0.163642
0.163445
0.163262
0.163094
0.162938
0.162794
0.162661
0.162538
0.162423
0.162317
0.162219
0.162127
0.162042
0.161962
0.161888
0.161819
0.161754
0.161693
0.161636
0.161583
0.161532
0.161485
0.16144
0.161398
0.161358
0.16132
0.161285
0.161251
0.161218
0.161188
0.161159
0.161131
0.161105
0.16108
0.161056
0.161033
0.161011
0.16099
0.16097
0.160951
0.160933
0.160915
0.160899
0.160883
0.160868
0.160853
0.160839
0.160826
0.160813
0.160801
0.16079
0.160779
0.160768
0.160758
0.160748
0.160739
0.16073
0.160722
0.160714
0.160706
0.160699
0.160692
0.160686
0.160679
0.160674
0.160668
0.160663
0.160658
0.160653
0.160648
0.160644
0.16064
0.160637
0.160633
0.16063
0.160627
0.160624
0.160621
0.160618
0.160616
0.160614
0.160612
0.16061
0.160608
0.160606
0.160605
0.160604
0.160602
0.160601
0.1606
0.1606
0.160599
0.160598
0.160598
0.160597
0.160597
0.160597
0.160597
0.160596
0.160597
0.160597
0.160597
0.160597
0.160597
0.160598
0.160598
0.160599
0.160599
0.1606
0.160601
0.160601
0.160602
0.160603
0.160604
0.160605
0.160606
0.160607
0.160608
0.16061
0.160611
0.160612
0.160614
0.160615
0.160617
0.160619
0.16062
0.160622
0.160624
0.160626
0.160628
0.16063
0.160632
0.160634
0.160637
0.160639
0.160641
0.160644
0.160647
0.16065
0.160652
0.160655
0.160658
0.160662
0.160665
0.160668
0.160672
0.160675
0.160679
0.160683
0.160687
0.160691
0.160696
0.1607
0.160705
0.160709
0.160714
0.160719
0.160724
0.16073
0.160735
0.160741
0.160747
0.160753
0.160759
0.160766
0.160773
0.16078
0.160787
0.160794
0.160802
0.16081
0.160818
0.160826
0.160835
0.160844
0.160853
0.160862
0.160872
0.160882
0.160893
0.160903
0.160915
0.160926
0.160938
0.16095
0.160962
0.160975
0.160989
0.161002
0.161016
0.161031
0.161046
0.161061
0.161077
0.161094
0.161111
0.161128
0.161147
0.161165
0.161184
0.161204
0.161225
0.161246
0.161267
0.16129
0.161313
0.161337
0.161361
0.161386
0.161413
0.161439
0.161467
0.161496
0.161526
0.161556
0.161588
0.16162
0.161654
0.161688
0.161724
0.161761
0.161798
0.161836
0.161868
0.161855
0.207578
0.208885
0.210523
0.212565
0.215091
0.218159
0.221784
0.22594
0.23057
0.235597
0.240934
0.246486
0.252164
0.257885
0.263574
0.269169
0.27462
0.279886
0.284937
0.289752
0.294318
0.298626
0.302676
0.306468
0.310008
0.313303
0.316364
0.319199
0.321821
0.324239
0.326465
0.32851
0.330383
0.332093
0.333649
0.335058
0.336329
0.337467
0.338479
0.339372
0.34015
0.34082
0.341386
0.341855
0.34223
0.342518
0.342721
0.342846
0.342896
0.342874
0.342785
0.342631
0.342414
0.342138
0.341804
0.341412
0.340965
0.340462
0.339904
0.33929
0.33862
0.337893
0.337108
0.336263
0.335357
0.334387
0.333351
0.332248
0.331074
0.329827
0.328503
0.327101
0.325618
0.32405
0.322397
0.320655
0.318824
0.316902
0.314888
0.312783
0.310587
0.308304
0.305938
0.303494
0.300978
0.298399
0.295765
0.293087
0.290375
0.287643
0.284903
0.282168
0.279452
0.276768
0.274128
0.271546
0.26903
0.266591
0.264237
0.261973
0.259803
0.257728
0.255747
0.253859
0.252058
0.250337
0.248689
0.247104
0.245572
0.244082
0.242623
0.241184
0.239755
0.238325
0.236885
0.235426
0.233943
0.232428
0.230878
0.229289
0.227658
0.225985
0.224271
0.222516
0.220722
0.218894
0.217034
0.215147
0.213239
0.211314
0.209377
0.207436
0.205496
0.203562
0.201642
0.199739
0.197861
0.196011
0.194197
0.19242
0.190687
0.189001
0.187365
0.185782
0.184255
0.182785
0.181374
0.180023
0.178733
0.177504
0.176335
0.175227
0.174179
0.173188
0.172255
0.171377
0.170553
0.169781
0.169058
0.168383
0.167753
0.167167
0.166621
0.166114
0.165643
0.165207
0.164802
0.164428
0.164082
0.163762
0.163466
0.163193
0.16294
0.162707
0.162492
0.162293
0.16211
0.161941
0.161784
0.161639
0.161505
0.161382
0.161267
0.16116
0.161062
0.16097
0.160885
0.160806
0.160732
0.160663
0.160598
0.160538
0.160482
0.160429
0.16038
0.160333
0.160289
0.160248
0.160209
0.160172
0.160137
0.160104
0.160073
0.160044
0.160016
0.159989
0.159964
0.15994
0.159917
0.159895
0.159874
0.159854
0.159836
0.159818
0.1598
0.159784
0.159768
0.159753
0.159739
0.159726
0.159713
0.1597
0.159689
0.159677
0.159667
0.159656
0.159647
0.159637
0.159628
0.15962
0.159612
0.159604
0.159597
0.15959
0.159584
0.159578
0.159572
0.159566
0.159561
0.159556
0.159551
0.159547
0.159543
0.159539
0.159535
0.159532
0.159528
0.159525
0.159523
0.15952
0.159518
0.159515
0.159513
0.159511
0.15951
0.159508
0.159506
0.159505
0.159504
0.159503
0.159502
0.159501
0.159501
0.1595
0.1595
0.159499
0.159499
0.159499
0.159499
0.159499
0.159499
0.159499
0.1595
0.1595
0.1595
0.159501
0.159502
0.159502
0.159503
0.159504
0.159505
0.159506
0.159506
0.159507
0.159509
0.15951
0.159511
0.159512
0.159513
0.159515
0.159516
0.159518
0.159519
0.159521
0.159522
0.159524
0.159526
0.159528
0.159529
0.159531
0.159533
0.159535
0.159537
0.15954
0.159542
0.159544
0.159547
0.159549
0.159552
0.159554
0.159557
0.15956
0.159563
0.159566
0.159569
0.159572
0.159575
0.159579
0.159582
0.159586
0.159589
0.159593
0.159597
0.159601
0.159605
0.15961
0.159614
0.159619
0.159623
0.159628
0.159633
0.159638
0.159643
0.159649
0.159655
0.15966
0.159666
0.159673
0.159679
0.159685
0.159692
0.159699
0.159706
0.159714
0.159721
0.159729
0.159737
0.159746
0.159754
0.159763
0.159772
0.159782
0.159791
0.159801
0.159812
0.159822
0.159833
0.159844
0.159856
0.159868
0.15988
0.159893
0.159906
0.159919
0.159933
0.159947
0.159962
0.159977
0.159993
0.160009
0.160026
0.160043
0.16006
0.160079
0.160097
0.160117
0.160136
0.160157
0.160178
0.1602
0.160222
0.160245
0.160269
0.160294
0.160319
0.160345
0.160372
0.1604
0.160429
0.160458
0.160489
0.16052
0.160553
0.160586
0.160621
0.160656
0.160693
0.160729
0.16076
0.160748
0.207166
0.207865
0.208718
0.209757
0.211028
0.212579
0.214449
0.216659
0.219216
0.222112
0.225325
0.228821
0.23256
0.236494
0.240576
0.244758
0.248994
0.253243
0.257467
0.261634
0.265718
0.269696
0.27355
0.277268
0.280841
0.284262
0.287528
0.290638
0.293593
0.296393
0.299041
0.301541
0.303896
0.306109
0.308185
0.310126
0.311937
0.31362
0.31518
0.31662
0.317944
0.319156
0.320259
0.321258
0.322156
0.322957
0.323666
0.324286
0.324822
0.325276
0.325652
0.325953
0.326182
0.32634
0.32643
0.326453
0.326409
0.326301
0.326127
0.325889
0.325586
0.325217
0.324781
0.324278
0.323706
0.323063
0.322347
0.321556
0.320688
0.31974
0.31871
0.317594
0.31639
0.315095
0.313707
0.312223
0.310641
0.308959
0.307178
0.305294
0.303307
0.301219
0.299033
0.296753
0.294383
0.291932
0.289406
0.286816
0.284172
0.281486
0.27877
0.276038
0.273304
0.270582
0.267885
0.265228
0.262622
0.260079
0.25761
0.255222
0.252923
0.250715
0.248602
0.246584
0.244658
0.242821
0.241068
0.23939
0.237779
0.236227
0.234723
0.233257
0.231819
0.230398
0.228987
0.227575
0.226156
0.224723
0.22327
0.221793
0.220288
0.218753
0.217188
0.215593
0.213968
0.212315
0.210636
0.208936
0.207218
0.205485
0.203743
0.201997
0.200251
0.198511
0.196781
0.195067
0.193374
0.191706
0.190067
0.188462
0.186895
0.185369
0.183887
0.182452
0.181066
0.179731
0.178448
0.177219
0.176044
0.174923
0.173857
0.172844
0.171886
0.170979
0.170124
0.169319
0.168563
0.167853
0.167188
0.166567
0.165986
0.165445
0.164942
0.164473
0.164038
0.163634
0.163259
0.162912
0.162591
0.162294
0.162019
0.161765
0.16153
0.161313
0.161113
0.160928
0.160757
0.160599
0.160453
0.160317
0.160192
0.160077
0.15997
0.15987
0.159778
0.159692
0.159613
0.159539
0.15947
0.159405
0.159345
0.159289
0.159237
0.159188
0.159141
0.159098
0.159057
0.159019
0.158983
0.158949
0.158917
0.158886
0.158857
0.15883
0.158804
0.15878
0.158757
0.158735
0.158714
0.158694
0.158675
0.158657
0.158639
0.158623
0.158608
0.158593
0.158579
0.158565
0.158552
0.15854
0.158529
0.158518
0.158507
0.158497
0.158487
0.158478
0.15847
0.158462
0.158454
0.158447
0.15844
0.158433
0.158427
0.158421
0.158415
0.15841
0.158405
0.1584
0.158396
0.158392
0.158388
0.158384
0.158381
0.158377
0.158374
0.158372
0.158369
0.158367
0.158364
0.158362
0.158361
0.158359
0.158357
0.158356
0.158355
0.158354
0.158353
0.158352
0.158351
0.158351
0.15835
0.15835
0.15835
0.15835
0.15835
0.15835
0.15835
0.15835
0.15835
0.158351
0.158351
0.158352
0.158353
0.158354
0.158354
0.158355
0.158356
0.158357
0.158358
0.158359
0.158361
0.158362
0.158363
0.158365
0.158366
0.158367
0.158369
0.15837
0.158372
0.158374
0.158375
0.158377
0.158379
0.158381
0.158383
0.158384
0.158386
0.158389
0.158391
0.158393
0.158395
0.158397
0.1584
0.158402
0.158404
0.158407
0.15841
0.158412
0.158415
0.158418
0.158421
0.158424
0.158427
0.15843
0.158433
0.158436
0.15844
0.158443
0.158447
0.158451
0.158454
0.158458
0.158462
0.158466
0.158471
0.158475
0.15848
0.158484
0.158489
0.158494
0.158499
0.158504
0.15851
0.158515
0.158521
0.158527
0.158533
0.158539
0.158545
0.158552
0.158558
0.158565
0.158573
0.15858
0.158587
0.158595
0.158603
0.158611
0.15862
0.158629
0.158638
0.158647
0.158657
0.158666
0.158676
0.158687
0.158698
0.158709
0.15872
0.158732
0.158744
0.158756
0.158769
0.158782
0.158796
0.15881
0.158824
0.158839
0.158854
0.15887
0.158886
0.158903
0.15892
0.158937
0.158956
0.158974
0.158994
0.159014
0.159034
0.159055
0.159077
0.1591
0.159123
0.159146
0.159171
0.159196
0.159222
0.159249
0.159277
0.159306
0.159335
0.159366
0.159397
0.159429
0.159463
0.159497
0.159532
0.159567
0.159597
0.159586
0.206922
0.207281
0.20772
0.208249
0.208889
0.209668
0.210612
0.211745
0.213086
0.214648
0.216438
0.218454
0.220688
0.223127
0.225749
0.228533
0.231452
0.23448
0.237589
0.240754
0.24395
0.247154
0.250347
0.253511
0.256631
0.259695
0.262692
0.265614
0.268455
0.271208
0.27387
0.276438
0.27891
0.281283
0.283556
0.285729
0.2878
0.289769
0.291636
0.293403
0.295068
0.296635
0.298103
0.299475
0.300753
0.301939
0.303036
0.304046
0.304973
0.305817
0.306583
0.307272
0.307885
0.308425
0.308894
0.309291
0.309619
0.309877
0.310066
0.310185
0.310235
0.310215
0.310124
0.30996
0.309724
0.309413
0.309025
0.308559
0.308012
0.307381
0.306664