/*--------------------------------*- C++ -*----------------------------------*\
| =========                 |                                                 |
| \\      /  F ield         | OpenFOAM: The Open Source CFD Toolbox           |
|  \\    /   O peration     | Version:  2506                                  |
|   \\  /    A nd           | Website:  www.openfoam.com                      |
|    \\/     M anipulation  |                                                 |
\*---------------------------------------------------------------------------*/
FoamFile
{
    version     2.0;
    format      ascii;
    arch        "LSB;label=32;scalar=64";
    class       volScalarField;
    location    "100";
    object      k;
}
// * * * * * * * * * * * * * * * * * * * * * * * * * * * * * * * * * * * * * //

dimensions      [0 2 -2 0 0 0 0];

internalField   nonuniform List<scalar> 
131949
(
0.559547
0.610578
0.612304
0.607554
0.603628
0.600519
0.597874
0.595605
0.593635
0.591879
0.590281
0.5888
0.587409
0.586086
0.584815
0.583584
0.582381
0.581202
0.580039
0.578889
0.57775
0.57662
0.575497
0.574383
0.573276
0.572179
0.57109
0.57001
0.568941
0.567881
0.566831
0.565789
0.564755
0.563728
0.562706
0.561688
0.560673
0.559659
0.558644
0.557627
0.556608
0.555586
0.554559
0.553527
0.55249
0.551446
0.550396
0.549338
0.548272
0.547196
0.546109
0.545009
0.543895
0.542764
0.541613
0.540439
0.53924
0.53801
0.536748
0.535447
0.534105
0.532717
0.531278
0.529784
0.528231
0.526616
0.524933
0.523182
0.521358
0.519459
0.517486
0.515436
0.513312
0.511115
0.508847
0.506515
0.504122
0.501677
0.499187
0.496663
0.494114
0.491553
0.488993
0.486446
0.483927
0.481448
0.479024
0.476667
0.474388
0.472199
0.470108
0.468121
0.466242
0.464473
0.462814
0.461259
0.459803
0.458437
0.457148
0.455923
0.454747
0.453603
0.452474
0.451341
0.450188
0.448996
0.447751
0.446437
0.445043
0.443556
0.441968
0.440273
0.438466
0.436546
0.434513
0.432368
0.430117
0.427765
0.425319
0.422788
0.420182
0.41751
0.414785
0.412018
0.409221
0.406405
0.403583
0.400766
0.397965
0.395192
0.392455
0.389766
0.387133
0.384564
0.382066
0.379645
0.377307
0.375057
0.372898
0.370833
0.368864
0.366993
0.365219
0.363542
0.361962
0.360476
0.359082
0.357778
0.35656
0.355426
0.354371
0.353392
0.352485
0.351645
0.350868
0.350151
0.34949
0.34888
0.348318
0.3478
0.347323
0.346883
0.346477
0.346103
0.345758
0.34544
0.345145
0.344872
0.34462
0.344385
0.344167
0.343965
0.343775
0.343599
0.343434
0.343279
0.343134
0.342998
0.34287
0.342749
0.342634
0.342526
0.342424
0.342327
0.342235
0.342147
0.342064
0.341984
0.341909
0.341836
0.341767
0.341701
0.341638
0.341578
0.34152
0.341464
0.341411
0.34136
0.341311
0.341265
0.34122
0.341176
0.341135
0.341095
0.341057
0.34102
0.340985
0.340951
0.340918
0.340887
0.340857
0.340828
0.340801
0.340774
0.340749
0.340724
0.340701
0.340678
0.340657
0.340636
0.340616
0.340597
0.340579
0.340561
0.340544
0.340528
0.340513
0.340498
0.340484
0.34047
0.340458
0.340445
0.340433
0.340422
0.340411
0.340401
0.340391
0.340382
0.340373
0.340364
0.340356
0.340348
0.340341
0.340334
0.340327
0.34032
0.340314
0.340308
0.340303
0.340298
0.340293
0.340288
0.340284
0.340279
0.340275
0.340272
0.340268
0.340265
0.340261
0.340259
0.340256
0.340253
0.340251
0.340249
0.340246
0.340245
0.340243
0.340241
0.34024
0.340238
0.340237
0.340236
0.340235
0.340235
0.340234
0.340234
0.340233
0.340233
0.340233
0.340233
0.340233
0.340233
0.340234
0.340234
0.340235
0.340236
0.340237
0.340238
0.340239
0.34024
0.340241
0.340243
0.340245
0.340246
0.340248
0.34025
0.340253
0.340255
0.340257
0.34026
0.340263
0.340266
0.340269
0.340272
0.340275
0.340279
0.340283
0.340287
0.340291
0.340295
0.340299
0.340304
0.340309
0.340314
0.340319
0.340324
0.34033
0.340336
0.340342
0.340348
0.340354
0.340361
0.340368
0.340375
0.340383
0.340391
0.340399
0.340407
0.340415
0.340424
0.340433
0.340443
0.340453
0.340463
0.340473
0.340484
0.340495
0.340507
0.340519
0.340531
0.340544
0.340557
0.34057
0.340584
0.340599
0.340614
0.340629
0.340645
0.340661
0.340678
0.340695
0.340713
0.340732
0.340751
0.340771
0.340791
0.340812
0.340833
0.340855
0.340878
0.340902
0.340926
0.340951
0.340977
0.341004
0.341031
0.341059
0.341089
0.341119
0.34115
0.341181
0.341214
0.341248
0.341283
0.341319
0.341356
0.341395
0.341434
0.341475
0.341517
0.34156
0.341605
0.341651
0.341698
0.341747
0.341798
0.34185
0.341904
0.341959
0.342016
0.342075
0.342136
0.342199
0.342264
0.342331
0.3424
0.34247
0.34254
0.342598
0.34259
0.437506
0.493293
0.53176
0.554251
0.567687
0.575662
0.580141
0.582548
0.583754
0.584232
0.584248
0.583968
0.583491
0.582878
0.582169
0.581387
0.580551
0.579672
0.578758
0.577817
0.576854
0.575873
0.574879
0.573875
0.572865
0.571851
0.570836
0.569822
0.568811
0.567803
0.5668
0.5658
0.564803
0.56381
0.562818
0.561826
0.560835
0.559841
0.558844
0.557844
0.556838
0.555827
0.55481
0.553787
0.552756
0.551718
0.550673
0.549618
0.548554
0.547479
0.546392
0.545291
0.544174
0.543039
0.541883
0.540702
0.539494
0.538254
0.536979
0.535664
0.534305
0.532897
0.531437
0.529919
0.528339
0.526693
0.524979
0.523191
0.521328
0.519388
0.517369
0.515271
0.513094
0.510842
0.508516
0.506122
0.503665
0.501152
0.498592
0.495995
0.493372
0.490735
0.488097
0.485471
0.482873
0.480316
0.477814
0.47538
0.473027
0.470766
0.468606
0.466553
0.464613
0.462787
0.461075
0.459473
0.457974
0.45657
0.455249
0.453997
0.452798
0.451635
0.450492
0.449348
0.448188
0.446993
0.445747
0.444434
0.443043
0.441562
0.439982
0.438296
0.4365
0.434592
0.432573
0.430444
0.42821
0.425877
0.423452
0.420944
0.418362
0.415717
0.413022
0.410286
0.407522
0.404742
0.401958
0.399181
0.396423
0.393695
0.391005
0.388364
0.385781
0.383263
0.380817
0.378449
0.376164
0.373968
0.371863
0.369851
0.367935
0.366116
0.364392
0.362765
0.361232
0.359792
0.358442
0.35718
0.356003
0.354906
0.353887
0.352941
0.352065
0.351254
0.350504
0.349812
0.349174
0.348585
0.348042
0.347541
0.34708
0.346655
0.346262
0.3459
0.345566
0.345257
0.344971
0.344706
0.344461
0.344233
0.34402
0.343823
0.343638
0.343466
0.343305
0.343153
0.343011
0.342878
0.342752
0.342633
0.342521
0.342415
0.342314
0.342219
0.342128
0.342042
0.34196
0.341881
0.341807
0.341735
0.341667
0.341602
0.34154
0.34148
0.341423
0.341368
0.341316
0.341266
0.341217
0.341171
0.341127
0.341084
0.341043
0.341004
0.340966
0.34093
0.340895
0.340861
0.340829
0.340798
0.340769
0.34074
0.340713
0.340687
0.340662
0.340638
0.340614
0.340592
0.340571
0.34055
0.340531
0.340512
0.340494
0.340477
0.34046
0.340444
0.340429
0.340415
0.340401
0.340387
0.340375
0.340362
0.340351
0.34034
0.340329
0.340319
0.340309
0.3403
0.340291
0.340283
0.340275
0.340267
0.34026
0.340253
0.340246
0.34024
0.340234
0.340228
0.340223
0.340217
0.340213
0.340208
0.340204
0.340199
0.340196
0.340192
0.340188
0.340185
0.340182
0.340179
0.340176
0.340174
0.340172
0.340169
0.340167
0.340166
0.340164
0.340162
0.340161
0.34016
0.340159
0.340158
0.340157
0.340156
0.340156
0.340155
0.340155
0.340155
0.340155
0.340155
0.340155
0.340155
0.340156
0.340156
0.340157
0.340158
0.340159
0.34016
0.340161
0.340162
0.340164
0.340166
0.340167
0.340169
0.340171
0.340173
0.340175
0.340178
0.34018
0.340183
0.340186
0.340189
0.340192
0.340195
0.340199
0.340202
0.340206
0.34021
0.340214
0.340218
0.340223
0.340228
0.340232
0.340237
0.340243
0.340248
0.340254
0.34026
0.340266
0.340272
0.340279
0.340285
0.340292
0.3403
0.340307
0.340315
0.340323
0.340332
0.34034
0.340349
0.340358
0.340368
0.340378
0.340388
0.340399
0.34041
0.340421
0.340433
0.340445
0.340457
0.34047
0.340483
0.340497
0.340511
0.340525
0.34054
0.340556
0.340572
0.340588
0.340605
0.340623
0.340641
0.340659
0.340678
0.340698
0.340719
0.34074
0.340761
0.340784
0.340807
0.34083
0.340855
0.34088
0.340906
0.340933
0.34096
0.340989
0.341018
0.341048
0.34108
0.341112
0.341145
0.341179
0.341214
0.34125
0.341288
0.341326
0.341366
0.341407
0.341449
0.341493
0.341538
0.341584
0.341632
0.341681
0.341732
0.341784
0.341838
0.341894
0.341952
0.342011
0.342072
0.342136
0.342201
0.342268
0.342338
0.342409
0.342478
0.342537
0.342531
0.398947
0.430829
0.461627
0.48753
0.508502
0.525018
0.537601
0.547033
0.55408
0.559332
0.563233
0.566114
0.568222
0.569737
0.570791
0.571484
0.571889
0.572063
0.572047
0.571878
0.571582
0.571181
0.570693
0.570134
0.569516
0.56885
0.568145
0.567408
0.566646
0.565861
0.565059
0.564242
0.563412
0.562569
0.561714
0.560847
0.559969
0.55908
0.558178
0.557264
0.556338
0.5554
0.554449
0.553487
0.552512
0.551526
0.550527
0.549515
0.548491
0.547452
0.546398
0.545327
0.544238
0.543127
0.541992
0.540831
0.539638
0.538412
0.537147
0.535839
0.534485
0.533078
0.531616
0.530093
0.528504
0.526847
0.525115
0.523307
0.521418
0.519447
0.517392
0.515252
0.513028
0.51072
0.508332
0.505867
0.503331
0.50073
0.498073
0.495369
0.492629
0.489864
0.487089
0.484316
0.48156
0.478837
0.476159
0.473542
0.470999
0.468541
0.466181
0.463925
0.461781
0.459753
0.457841
0.456044
0.454358
0.452775
0.451285
0.449877
0.448537
0.447248
0.445993
0.444756
0.443519
0.442264
0.440975
0.439637
0.438237
0.436763
0.435204
0.433553
0.431806
0.429958
0.42801
0.425961
0.423816
0.421579
0.419257
0.416857
0.414388
0.411861
0.409284
0.40667
0.40403
0.401374
0.398714
0.396062
0.393428
0.390821
0.388253
0.385731
0.383265
0.380861
0.378526
0.376267
0.374088
0.371993
0.369986
0.368069
0.366243
0.36451
0.362869
0.361319
0.359861
0.35849
0.357206
0.356006
0.354886
0.353843
0.352874
0.351975
0.351141
0.35037
0.349657
0.348999
0.348391
0.34783
0.347313
0.346837
0.346397
0.345992
0.345618
0.345272
0.344953
0.344658
0.344385
0.344131
0.343896
0.343678
0.343475
0.343285
0.343108
0.342943
0.342788
0.342643
0.342506
0.342378
0.342256
0.342142
0.342034
0.341932
0.341835
0.341743
0.341656
0.341573
0.341493
0.341418
0.341346
0.341277
0.341212
0.341149
0.341089
0.341032
0.340977
0.340924
0.340873
0.340825
0.340779
0.340734
0.340691
0.34065
0.340611
0.340573
0.340537
0.340502
0.340469
0.340437
0.340406
0.340376
0.340348
0.340321
0.340294
0.340269
0.340245
0.340222
0.3402
0.340179
0.340159
0.340139
0.34012
0.340102
0.340085
0.340069
0.340053
0.340038
0.340024
0.34001
0.339997
0.339984
0.339972
0.33996
0.339949
0.339939
0.339929
0.339919
0.33991
0.339902
0.339893
0.339885
0.339878
0.339871
0.339864
0.339857
0.339851
0.339845
0.33984
0.339834
0.339829
0.339825
0.33982
0.339816
0.339812
0.339808
0.339805
0.339801
0.339798
0.339795
0.339792
0.33979
0.339788
0.339785
0.339783
0.339781
0.33978
0.339778
0.339777
0.339776
0.339774
0.339773
0.339773
0.339772
0.339771
0.339771
0.339771
0.33977
0.33977
0.33977
0.339771
0.339771
0.339771
0.339772
0.339772
0.339773
0.339774
0.339775
0.339776
0.339778
0.339779
0.33978
0.339782
0.339784
0.339786
0.339788
0.33979
0.339792
0.339795
0.339797
0.3398
0.339803
0.339806
0.339809
0.339812
0.339815
0.339819
0.339823
0.339827
0.339831
0.339835
0.339839
0.339844
0.339849
0.339854
0.339859
0.339864
0.33987
0.339875
0.339881
0.339888
0.339894
0.339901
0.339907
0.339915
0.339922
0.33993
0.339937
0.339946
0.339954
0.339963
0.339972
0.339981
0.339991
0.340001
0.340011
0.340021
0.340032
0.340044
0.340055
0.340067
0.34008
0.340093
0.340106
0.340119
0.340133
0.340148
0.340163
0.340178
0.340194
0.340211
0.340227
0.340245
0.340263
0.340281
0.3403
0.34032
0.34034
0.340361
0.340383
0.340405
0.340428
0.340451
0.340476
0.340501
0.340527
0.340553
0.340581
0.340609
0.340638
0.340668
0.340699
0.340731
0.340763
0.340797
0.340832
0.340868
0.340905
0.340943
0.340983
0.341023
0.341065
0.341108
0.341152
0.341198
0.341246
0.341294
0.341345
0.341396
0.34145
0.341505
0.341562
0.341621
0.341681
0.341744
0.341808
0.341875
0.341943
0.342014
0.342082
0.342141
0.342135
0.384722
0.399672
0.417122
0.43552
0.453613
0.470501
0.485582
0.498647
0.509769
0.51913
0.526948
0.533447
0.538832
0.543282
0.54695
0.549961
0.552421
0.554416
0.556019
0.557288
0.558275
0.559019
0.559558
0.559921
0.560134
0.560218
0.560192
0.560071
0.559869
0.559596
0.559261
0.558872
0.558434
0.557952
0.557429
0.55687
0.556275
0.555647
0.554987
0.554298
0.55358
0.552835
0.552064
0.551269
0.55045
0.549609
0.548746
0.547862
0.546956
0.546029
0.545079
0.544106
0.543108
0.542084
0.541029
0.539943
0.538821
0.53766
0.536457
0.535206
0.533904
0.532546
0.531127
0.529643
0.52809
0.526462
0.524756
0.522968
0.521094
0.519131
0.517078
0.514932
0.512694
0.510364
0.507944
0.505436
0.502845
0.500177
0.497439
0.49464
0.49179
0.4889
0.485982
0.483051
0.480121
0.477206
0.474322
0.471483
0.468704
0.465999
0.463379
0.460856
0.458438
0.456133
0.453943
0.451871
0.449916
0.448071
0.446333
0.444689
0.44313
0.441642
0.44021
0.438818
0.43745
0.436089
0.434719
0.433325
0.431892
0.430409
0.428865
0.42725
0.425559
0.423785
0.421928
0.419985
0.41796
0.415854
0.413673
0.411423
0.40911
0.406745
0.404334
0.40189
0.39942
0.396936
0.394448
0.391966
0.3895
0.38706
0.384655
0.382292
0.379981
0.377728
0.375539
0.373421
0.371377
0.369412
0.367529
0.36573
0.364016
0.362389
0.360848
0.359394
0.358024
0.356737
0.35553
0.354402
0.35335
0.35237
0.351458
0.350613
0.349829
0.349103
0.348432
0.347812
0.347239
0.346711
0.346224
0.345774
0.345359
0.344977
0.344623
0.344297
0.343995
0.343716
0.343457
0.343218
0.342995
0.342788
0.342595
0.342416
0.342248
0.342091
0.341944
0.341806
0.341677
0.341555
0.34144
0.341331
0.341229
0.341132
0.34104
0.340952
0.340869
0.340791
0.340715
0.340644
0.340576
0.340511
0.340448
0.340389
0.340332
0.340278
0.340226
0.340176
0.340128
0.340082
0.340039
0.339996
0.339956
0.339918
0.33988
0.339845
0.339811
0.339778
0.339747
0.339716
0.339688
0.33966
0.339633
0.339608
0.339583
0.33956
0.339537
0.339516
0.339495
0.339475
0.339457
0.339438
0.339421
0.339404
0.339388
0.339373
0.339359
0.339345
0.339332
0.339319
0.339307
0.339295
0.339284
0.339273
0.339263
0.339254
0.339245
0.339236
0.339228
0.33922
0.339212
0.339205
0.339198
0.339192
0.339186
0.33918
0.339175
0.339169
0.339164
0.33916
0.339155
0.339151
0.339147
0.339144
0.33914
0.339137
0.339134
0.339131
0.339129
0.339126
0.339124
0.339122
0.33912
0.339118
0.339117
0.339115
0.339114
0.339113
0.339112
0.339111
0.33911
0.33911
0.339109
0.339109
0.339109
0.339109
0.339109
0.339109
0.339109
0.33911
0.33911
0.339111
0.339111
0.339112
0.339113
0.339114
0.339116
0.339117
0.339118
0.33912
0.339121
0.339123
0.339125
0.339127
0.339129
0.339132
0.339134
0.339136
0.339139
0.339142
0.339145
0.339148
0.339151
0.339154
0.339158
0.339161
0.339165
0.339169
0.339173
0.339177
0.339182
0.339186
0.339191
0.339196
0.339201
0.339206
0.339212
0.339218
0.339223
0.33923
0.339236
0.339242
0.339249
0.339256
0.339263
0.339271
0.339278
0.339286
0.339295
0.339303
0.339312
0.339321
0.33933
0.33934
0.33935
0.33936
0.339371
0.339382
0.339393
0.339404
0.339416
0.339429
0.339441
0.339455
0.339468
0.339482
0.339496
0.339511
0.339527
0.339542
0.339559
0.339575
0.339593
0.33961
0.339629
0.339648
0.339667
0.339687
0.339708
0.339729
0.339751
0.339773
0.339797
0.339821
0.339845
0.339871
0.339897
0.339924
0.339952
0.33998
0.34001
0.34004
0.340071
0.340104
0.340137
0.340171
0.340206
0.340243
0.34028
0.340319
0.340359
0.3404
0.340442
0.340485
0.34053
0.340577
0.340624
0.340674
0.340724
0.340777
0.340831
0.340887
0.340944
0.341003
0.341065
0.341128
0.341193
0.34126
0.341329
0.341396
0.341453
0.341448
0.379456
0.386522
0.395427
0.40595
0.417633
0.429928
0.442273
0.454212
0.465447
0.475808
0.485218
0.493668
0.501193
0.507853
0.513719
0.518866
0.523368
0.527293
0.530706
0.533664
0.53622
0.538421
0.540309
0.541919
0.543286
0.544438
0.545401
0.546196
0.546842
0.547357
0.547754
0.548045
0.54824
0.548348
0.548376
0.54833
0.548215
0.548035
0.547796
0.5475
0.547151
0.546752
0.546306
0.545816
0.545285
0.544714
0.544106
0.543462
0.542784
0.542072
0.541326
0.540546
0.539731
0.53888
0.537991
0.537061
0.536088
0.535069
0.534001
0.532878
0.531699
0.530457
0.529149
0.527771
0.526317
0.524783
0.523166
0.52146
0.519662
0.51777
0.515779
0.513688
0.511496
0.509202
0.506807
0.504313
0.501723
0.499042
0.496275
0.49343
0.490517
0.487545
0.484527
0.481474
0.478402
0.475325
0.472258
0.469216
0.466215
0.46327
0.460395
0.457602
0.454904
0.45231
0.449826
0.447458
0.445207
0.443074
0.441055
0.439144
0.437334
0.435612
0.433968
0.432388
0.430857
0.42936
0.427881
0.426406
0.42492
0.42341
0.421866
0.420275
0.418632
0.416928
0.415161
0.413326
0.411425
0.409458
0.407428
0.405339
0.403197
0.401008
0.39878
0.396522
0.394241
0.391947
0.389649
0.387356
0.385077
0.382821
0.380596
0.37841
0.37627
0.374183
0.372155
0.370191
0.368295
0.366472
0.364723
0.363052
0.36146
0.359947
0.358514
0.35716
0.355885
0.354686
0.353562
0.352511
0.351529
0.350614
0.349764
0.348974
0.348241
0.347562
0.346935
0.346354
0.345818
0.345323
0.344866
0.344444
0.344055
0.343695
0.343363
0.343057
0.342773
0.34251
0.342267
0.342041
0.341832
0.341637
0.341455
0.341286
0.341128
0.34098
0.340842
0.340712
0.340589
0.340474
0.340366
0.340264
0.340167
0.340076
0.339989
0.339907
0.339829
0.339755
0.339685
0.339617
0.339553
0.339492
0.339434
0.339378
0.339325
0.339274
0.339225
0.339179
0.339134
0.339092
0.339051
0.339012
0.338974
0.338938
0.338904
0.338871
0.338839
0.338809
0.338779
0.338752
0.338725
0.338699
0.338675
0.338651
0.338629
0.338607
0.338587
0.338567
0.338548
0.33853
0.338512
0.338496
0.33848
0.338465
0.33845
0.338437
0.338424
0.338411
0.338399
0.338387
0.338377
0.338366
0.338356
0.338347
0.338338
0.338329
0.338321
0.338314
0.338306
0.338299
0.338293
0.338286
0.338281
0.338275
0.33827
0.338265
0.33826
0.338256
0.338252
0.338248
0.338244
0.338241
0.338237
0.338234
0.338232
0.338229
0.338227
0.338224
0.338222
0.338221
0.338219
0.338217
0.338216
0.338215
0.338214
0.338213
0.338212
0.338212
0.338211
0.338211
0.33821
0.33821
0.33821
0.33821
0.338211
0.338211
0.338212
0.338212
0.338213
0.338214
0.338215
0.338216
0.338217
0.338218
0.338219
0.338221
0.338222
0.338224
0.338226
0.338227
0.338229
0.338232
0.338234
0.338236
0.338239
0.338241
0.338244
0.338247
0.338249
0.338252
0.338256
0.338259
0.338262
0.338266
0.33827
0.338273
0.338277
0.338282
0.338286
0.33829
0.338295
0.3383
0.338305
0.33831
0.338315
0.33832
0.338326
0.338332
0.338338
0.338344
0.338351
0.338357
0.338364
0.338371
0.338378
0.338386
0.338394
0.338402
0.33841
0.338419
0.338427
0.338436
0.338446
0.338455
0.338465
0.338476
0.338486
0.338497
0.338508
0.33852
0.338532
0.338544
0.338557
0.33857
0.338583
0.338597
0.338611
0.338626
0.338641
0.338657
0.338673
0.338689
0.338706
0.338724
0.338742
0.33876
0.33878
0.338799
0.33882
0.33884
0.338862
0.338884
0.338907
0.33893
0.338955
0.33898
0.339005
0.339032
0.339059
0.339087
0.339116
0.339146
0.339176
0.339208
0.33924
0.339274
0.339308
0.339344
0.33938
0.339418
0.339457
0.339497
0.339538
0.339581
0.339625
0.33967
0.339716
0.339764
0.339814
0.339865
0.339918
0.339972
0.340028
0.340086
0.340145
0.340207
0.34027
0.340335
0.340402
0.340468
0.340524
0.340519
0.377297
0.380866
0.385405
0.390997
0.397623
0.405161
0.413386
0.422033
0.430849
0.439616
0.448159
0.456348
0.464096
0.471349
0.478083
0.484291
0.489983
0.495177
0.4999
0.50418
0.508047
0.511535
0.514673
0.517492
0.520019
0.522281
0.524303
0.526107
0.527712
0.529137
0.530398
0.531508
0.532479
0.533322
0.534046
0.53466
0.535171
0.535584
0.535906
0.536143
0.536299
0.536379
0.536388
0.53633
0.536208
0.536028
0.535791
0.5355
0.535158
0.534766
0.534326
0.533838
0.533303
0.532718
0.532085
0.5314
0.530663
0.52987
0.529018
0.528105
0.527126
0.526079
0.524958
0.523761
0.522481
0.521116
0.51966
0.518111
0.516462
0.514712
0.512857
0.510893
0.50882
0.506636
0.504341
0.501935
0.499421
0.496801
0.494079
0.491263
0.48836
0.485378
0.482329
0.479225
0.476079
0.472904
0.469717
0.466533
0.463367
0.460236
0.457156
0.45414
0.451203
0.448357
0.445611
0.442974
0.440453
0.438049
0.435763
0.433594
0.431537
0.429584
0.427727
0.425954
0.424253
0.42261
0.421012
0.419444
0.417893
0.416344
0.414787
0.413209
0.411602
0.409958
0.408271
0.406536
0.404751
0.402916
0.401031
0.399099
0.397123
0.395108
0.393061
0.390987
0.388895
0.38679
0.384683
0.382579
0.380488
0.378418
0.376374
0.374366
0.372399
0.370479
0.368612
0.366803
0.365056
0.363374
0.361761
0.360218
0.358747
0.357348
0.356022
0.354769
0.353587
0.352475
0.351432
0.350456
0.349544
0.348694
0.347902
0.347166
0.346483
0.34585
0.345265
0.344722
0.344221
0.343758
0.343331
0.342936
0.342571
0.342234
0.341922
0.341634
0.341368
0.341121
0.340893
0.34068
0.340483
0.3403
0.340129
0.33997
0.339821
0.339682
0.339552
0.33943
0.339315
0.339207
0.339105
0.339009
0.338918
0.338832
0.338751
0.338674
0.338601
0.338532
0.338466
0.338403
0.338343
0.338286
0.338231
0.338179
0.33813
0.338083
0.338037
0.337994
0.337953
0.337913
0.337875
0.337839
0.337804
0.337771
0.337739
0.337709
0.33768
0.337652
0.337625
0.337599
0.337575
0.337551
0.337529
0.337508
0.337487
0.337467
0.337449
0.337431
0.337414
0.337397
0.337382
0.337367
0.337352
0.337339
0.337326
0.337314
0.337302
0.337291
0.33728
0.33727
0.33726
0.337251
0.337242
0.337234
0.337226
0.337219
0.337212
0.337205
0.337199
0.337193
0.337187
0.337182
0.337177
0.337172
0.337168
0.337164
0.33716
0.337156
0.337153
0.33715
0.337147
0.337144
0.337141
0.337139
0.337137
0.337135
0.337133
0.337132
0.33713
0.337129
0.337128
0.337127
0.337126
0.337126
0.337125
0.337125
0.337125
0.337125
0.337125
0.337125
0.337125
0.337125
0.337126
0.337127
0.337127
0.337128
0.337129
0.33713
0.337131
0.337132
0.337134
0.337135
0.337137
0.337138
0.33714
0.337142
0.337144
0.337146
0.337148
0.33715
0.337152
0.337155
0.337157
0.33716
0.337163
0.337165
0.337168
0.337172
0.337175
0.337178
0.337181
0.337185
0.337189
0.337192
0.337196
0.3372
0.337205
0.337209
0.337214
0.337218
0.337223
0.337228
0.337233
0.337238
0.337244
0.337249
0.337255
0.337261
0.337267
0.337274
0.33728
0.337287
0.337294
0.337301
0.337309
0.337316
0.337324
0.337332
0.33734
0.337349
0.337358
0.337367
0.337376
0.337386
0.337396
0.337406
0.337417
0.337427
0.337439
0.33745
0.337462
0.337474
0.337487
0.3375
0.337513
0.337527
0.337541
0.337555
0.33757
0.337585
0.337601
0.337618
0.337634
0.337652
0.337669
0.337688
0.337706
0.337726
0.337746
0.337766
0.337787
0.337809
0.337831
0.337854
0.337878
0.337903
0.337928
0.337954
0.33798
0.338008
0.338036
0.338065
0.338095
0.338125
0.338157
0.33819
0.338223
0.338258
0.338294
0.338331
0.338368
0.338407
0.338448
0.338489
0.338532
0.338576
0.338621
0.338667
0.338716
0.338765
0.338816
0.338869
0.338923
0.338979
0.339037
0.339097
0.339158
0.339222
0.339287
0.33935
0.339405
0.339401
0.376296
0.378238
0.380656
0.383632
0.387239
0.391509
0.396415
0.401882
0.407801
0.414053
0.420511
0.427059
0.433591
0.44002
0.446273
0.452298
0.458055
0.463519
0.468674
0.473514
0.478041
0.48226
0.486181
0.489818
0.493183
0.496293
0.499164
0.50181
0.504246
0.506486
0.508544
0.51043
0.512156
0.513731
0.515163
0.516461
0.517631
0.518681
0.519616
0.520442
0.521166
0.521791
0.522324
0.52277
0.523132
0.523416
0.523626
0.523765
0.523835
0.523841
0.523783
0.523663
0.523482
0.52324
0.522937
0.522572
0.522142
0.521648
0.521085
0.520453
0.519746
0.518964
0.518101
0.517154
0.516119
0.514992
0.513769
0.512446
0.511019
0.509483
0.507835
0.506073
0.504194
0.502195
0.500075
0.497835
0.495475
0.492998
0.490404
0.487699
0.48489
0.481984
0.47899
0.47592
0.472785
0.4696
0.466378
0.463136
0.459889
0.456654
0.453447
0.450285
0.447183
0.444155
0.441215
0.438372
0.435637
0.433015
0.430511
0.428126
0.425859
0.423706
0.421662
0.419717
0.417863
0.416088
0.414378
0.412723
0.411107
0.409518
0.407944
0.406374
0.404796
0.403203
0.401586
0.39994
0.398261
0.396547
0.394796
0.393009
0.391189
0.389338
0.387461
0.385562
0.383647
0.381723
0.379797
0.377874
0.375962
0.374068
0.372199
0.37036
0.368558
0.366798
0.365086
0.363425
0.36182
0.360274
0.358789
0.357368
0.356012
0.354721
0.353497
0.352338
0.351245
0.350216
0.34925
0.348344
0.347497
0.346707
0.34597
0.345285
0.344649
0.344058
0.343511
0.343004
0.342536
0.342102
0.341701
0.341331
0.340988
0.340672
0.340379
0.340108
0.339858
0.339625
0.33941
0.33921
0.339024
0.338851
0.33869
0.33854
0.3384
0.338269
0.338146
0.33803
0.337922
0.33782
0.337725
0.337634
0.337549
0.337468
0.337392
0.33732
0.337251
0.337186
0.337124
0.337065
0.337009
0.336956
0.336905
0.336857
0.336811
0.336767
0.336725
0.336684
0.336646
0.336609
0.336574
0.336541
0.336509
0.336478
0.336449
0.336421
0.336394
0.336368
0.336344
0.336321
0.336298
0.336277
0.336256
0.336237
0.336218
0.3362
0.336183
0.336167
0.336152
0.336137
0.336123
0.33611
0.336097
0.336085
0.336073
0.336062
0.336052
0.336042
0.336032
0.336023
0.336015
0.336007
0.335999
0.335992
0.335985
0.335979
0.335973
0.335967
0.335962
0.335957
0.335952
0.335948
0.335944
0.33594
0.335936
0.335933
0.33593
0.335927
0.335924
0.335922
0.335919
0.335917
0.335916
0.335914
0.335912
0.335911
0.33591
0.335909
0.335908
0.335908
0.335907
0.335907
0.335906
0.335906
0.335906
0.335907
0.335907
0.335907
0.335908
0.335908
0.335909
0.33591
0.335911
0.335912
0.335913
0.335914
0.335916
0.335917
0.335919
0.33592
0.335922
0.335924
0.335926
0.335928
0.33593
0.335932
0.335934
0.335936
0.335939
0.335941
0.335944
0.335947
0.33595
0.335952
0.335955
0.335959
0.335962
0.335965
0.335969
0.335972
0.335976
0.33598
0.335984
0.335988
0.335992
0.335996
0.336
0.336005
0.33601
0.336015
0.33602
0.336025
0.33603
0.336035
0.336041
0.336047
0.336053
0.336059
0.336065
0.336071
0.336078
0.336085
0.336092
0.336099
0.336107
0.336114
0.336122
0.33613
0.336139
0.336147
0.336156
0.336165
0.336175
0.336184
0.336194
0.336204
0.336215
0.336226
0.336237
0.336248
0.33626
0.336272
0.336284
0.336297
0.33631
0.336324
0.336338
0.336352
0.336367
0.336382
0.336397
0.336413
0.33643
0.336447
0.336464
0.336482
0.3365
0.336519
0.336539
0.336559
0.33658
0.336601
0.336623
0.336645
0.336669
0.336692
0.336717
0.336742
0.336768
0.336795
0.336822
0.336851
0.33688
0.33691
0.336941
0.336973
0.337005
0.337039
0.337074
0.337109
0.337146
0.337184
0.337223
0.337263
0.337305
0.337347
0.337391
0.337437
0.337483
0.337532
0.337581
0.337632
0.337685
0.337739
0.337795
0.337853
0.337913
0.337974
0.338037
0.338099
0.338152
0.338148
0.375769
0.376888
0.378244
0.379881
0.381855
0.384219
0.387003
0.390214
0.393836
0.397833
0.402157
0.406745
0.411533
0.416455
0.421447
0.426452
0.431419
0.436305
0.441074
0.445699
0.450159
0.454439
0.45853
0.462428
0.46613
0.469638
0.472957
0.47609
0.479044
0.481825
0.484439
0.486893
0.489193
0.491345
0.493355
0.495226
0.496965
0.498577
0.500065
0.501435
0.502691
0.503838
0.50488
0.505823
0.50667
0.507426
0.508096
0.508681
0.509187
0.509616
0.50997
0.51025
0.510459
0.510596
0.510661
0.510656
0.510577
0.510425
0.510197
0.509891
0.509505
0.509036
0.508481
0.507836
0.507099
0.506264
0.505328
0.504288
0.503138
0.501876
0.500497
0.498998
0.497375
0.495627
0.493751
0.491746
0.489611
0.487349
0.48496
0.482447
0.479814
0.477067
0.474215
0.471266
0.468232
0.465127
0.461962
0.458754
0.455519
0.452273
0.449033
0.445817
0.44264
0.439519
0.436469
0.433503
0.430632
0.427867
0.425214
0.422677
0.420259
0.41796
0.415776
0.413702
0.41173
0.409852
0.408056
0.406332
0.404667
0.403049
0.401466
0.399906
0.398358
0.396812
0.395262
0.393699
0.392118
0.390515
0.388888
0.387236
0.385559
0.38386
0.38214
0.380403
0.378654
0.376898
0.37514
0.373385
0.371641
0.369911
0.368204
0.366523
0.364875
0.363264
0.361695
0.360172
0.358699
0.357278
0.355912
0.354604
0.353354
0.352164
0.351033
0.349962
0.34895
0.347996
0.3471
0.346258
0.345471
0.344735
0.344048
0.343409
0.342814
0.342262
0.34175
0.341275
0.340835
0.340427
0.340051
0.339702
0.339379
0.33908
0.338804
0.338548
0.338311
0.338091
0.337888
0.337698
0.337522
0.337358
0.337206
0.337063
0.33693
0.336806
0.33669
0.33658
0.336478
0.336381
0.336291
0.336205
0.336124
0.336048
0.335976
0.335908
0.335843
0.335782
0.335724
0.335668
0.335616
0.335566
0.335518
0.335473
0.33543
0.335388
0.335349
0.335312
0.335276
0.335242
0.335209
0.335178
0.335148
0.33512
0.335093
0.335067
0.335042
0.335019
0.334996
0.334975
0.334954
0.334935
0.334916
0.334898
0.334881
0.334865
0.334849
0.334835
0.334821
0.334807
0.334795
0.334783
0.334771
0.33476
0.33475
0.33474
0.334731
0.334722
0.334714
0.334706
0.334699
0.334692
0.334685
0.334679
0.334673
0.334667
0.334662
0.334657
0.334653
0.334649
0.334645
0.334641
0.334638
0.334634
0.334632
0.334629
0.334626
0.334624
0.334622
0.33462
0.334619
0.334617
0.334616
0.334615
0.334614
0.334613
0.334613
0.334612
0.334612
0.334612
0.334612
0.334612
0.334612
0.334612
0.334613
0.334613
0.334614
0.334615
0.334616
0.334617
0.334618
0.334619
0.334621
0.334622
0.334624
0.334625
0.334627
0.334629
0.334631
0.334632
0.334635
0.334637
0.334639
0.334641
0.334644
0.334646
0.334649
0.334651
0.334654
0.334657
0.33466
0.334663
0.334666
0.334669
0.334672
0.334675
0.334679
0.334682
0.334686
0.33469
0.334694
0.334698
0.334702
0.334706
0.33471
0.334715
0.334719
0.334724
0.334729
0.334734
0.334739
0.334744
0.33475
0.334755
0.334761
0.334767
0.334773
0.334779
0.334785
0.334792
0.334798
0.334805
0.334812
0.33482
0.334827
0.334835
0.334843
0.334851
0.334859
0.334868
0.334877
0.334886
0.334895
0.334904
0.334914
0.334924
0.334935
0.334945
0.334956
0.334968
0.334979
0.334991
0.335003
0.335016
0.335029
0.335042
0.335056
0.33507
0.335084
0.335099
0.335114
0.33513
0.335146
0.335163
0.33518
0.335197
0.335215
0.335234
0.335253
0.335273
0.335293
0.335314
0.335335
0.335357
0.33538
0.335403
0.335427
0.335451
0.335477
0.335503
0.335529
0.335557
0.335585
0.335615
0.335645
0.335676
0.335707
0.33574
0.335774
0.335809
0.335844
0.335881
0.335919
0.335958
0.335998
0.33604
0.336082
0.336126
0.336172
0.336218
0.336266
0.336316
0.336367
0.33642
0.336474
0.33653
0.336588
0.336647
0.336708
0.336768
0.336819
0.336816
0.375459
0.376118
0.376903
0.377831
0.378934
0.380248
0.381805
0.383629
0.385735
0.388129
0.390804
0.393744
0.396924
0.400314
0.403879
0.40758
0.411379
0.415241
0.419131
0.423017
0.426874
0.430678
0.434411
0.438056
0.441603
0.445043
0.448368
0.451576
0.454663
0.457628
0.46047
0.46319
0.465787
0.468264
0.47062
0.472856
0.474975
0.476978
0.478867
0.480643
0.482311
0.483871
0.485328
0.486684
0.487942
0.489107
0.490182
0.491168
0.49207
0.49289
0.493629
0.494289
0.494872
0.495378
0.495808
0.49616
0.496435
0.49663
0.496746
0.496779
0.496728
0.496591
0.496363
0.496043
0.495628
0.495112
0.494494
0.493768
0.492931
0.491979
0.490908
0.489714
0.488393
0.486943
0.485359