/*--------------------------------*- C++ -*----------------------------------*\
| =========                 |                                                 |
| \\      /  F ield         | OpenFOAM: The Open Source CFD Toolbox           |
|  \\    /   O peration     | Version:  2506                                  |
|   \\  /    A nd           | Website:  www.openfoam.com                      |
|    \\/     M anipulation  |                                                 |
\*---------------------------------------------------------------------------*/
FoamFile
{
    version     2.0;
    format      ascii;
    arch        "LSB;label=32;scalar=64";
    class       volScalarField;
    location    "100";
    object      nut;
}
// * * * * * * * * * * * * * * * * * * * * * * * * * * * * * * * * * * * * * //

dimensions      [0 2 -1 0 0 0 0];

internalField   nonuniform List<scalar> 
131949
(
0.0659356
0.0681938
0.068282
0.0682221
0.0682883
0.0684196
0.0685698
0.0687241
0.0688756
0.0690205
0.0691571
0.0692853
0.0694053
0.0695175
0.0696224
0.0697204
0.069812
0.0698977
0.069978
0.0700533
0.0701241
0.0701911
0.0702545
0.070315
0.0703729
0.0704285
0.0704822
0.0705342
0.0705846
0.0706335
0.0706809
0.0707269
0.0707712
0.0708138
0.0708546
0.0708935
0.0709303
0.070965
0.0709974
0.0710277
0.0710558
0.0710816
0.0711053
0.0711268
0.0711462
0.0711636
0.0711788
0.0711918
0.0712024
0.0712106
0.071216
0.0712182
0.0712171
0.071212
0.0712024
0.0711879
0.0711677
0.0711412
0.0711078
0.0710666
0.071017
0.0709581
0.0708894
0.0708101
0.0707195
0.070617
0.0705021
0.0703744
0.0702336
0.0700794
0.0699118
0.069731
0.0695371
0.0693307
0.0691125
0.0688833
0.0686442
0.0683964
0.0681413
0.0678806
0.0676159
0.0673489
0.0670817
0.0668161
0.0665539
0.0662969
0.0660469
0.0658053
0.0655734
0.0653522
0.0651425
0.0649447
0.0647587
0.0645845
0.0644212
0.0642679
0.0641234
0.0639862
0.0638544
0.0637263
0.0635998
0.0634731
0.0633443
0.0632115
0.0630732
0.062928
0.0627747
0.0626127
0.0624413
0.0622603
0.0620698
0.0618702
0.0616622
0.0614467
0.0612249
0.060998
0.0607677
0.0605354
0.0603031
0.0600724
0.0598452
0.0596233
0.0594087
0.0592031
0.0590081
0.0588256
0.058657
0.0585038
0.0583671
0.0582483
0.0581483
0.0580678
0.0580075
0.0579678
0.0579489
0.0579508
0.0579734
0.0580162
0.0580786
0.05816
0.0582592
0.0583752
0.0585067
0.0586522
0.0588104
0.0589794
0.0591578
0.0593439
0.0595359
0.0597322
0.0599312
0.0601313
0.0603312
0.0605294
0.0607248
0.0609162
0.0611026
0.0612833
0.0614576
0.0616247
0.0617844
0.0619363
0.0620802
0.062216
0.0623436
0.0624631
0.0625747
0.0626785
0.0627748
0.0628639
0.062946
0.0630215
0.0630908
0.0631542
0.063212
0.0632646
0.0633124
0.0633557
0.0633948
0.0634302
0.063462
0.0634906
0.0635162
0.0635392
0.0635597
0.0635779
0.0635942
0.0636087
0.0636215
0.0636329
0.063643
0.0636519
0.0636597
0.0636666
0.0636727
0.0636781
0.0636828
0.063687
0.0636906
0.0636938
0.0636966
0.0636991
0.0637013
0.0637033
0.063705
0.0637066
0.0637079
0.0637092
0.0637103
0.0637114
0.0637123
0.0637132
0.063714
0.0637148
0.0637155
0.0637162
0.0637169
0.0637175
0.0637182
0.0637188
0.0637194
0.06372
0.0637206
0.0637211
0.0637217
0.0637223
0.0637228
0.0637234
0.0637239
0.0637245
0.063725
0.0637256
0.0637261
0.0637266
0.0637272
0.0637277
0.0637282
0.0637287
0.0637292
0.0637297
0.0637302
0.0637307
0.0637311
0.0637316
0.063732
0.0637325
0.0637329
0.0637334
0.0637338
0.0637342
0.0637346
0.063735
0.0637354
0.0637358
0.0637362
0.0637366
0.063737
0.0637373
0.0637377
0.0637381
0.0637385
0.0637388
0.0637392
0.0637396
0.0637399
0.0637403
0.0637407
0.0637411
0.0637415
0.0637418
0.0637422
0.0637426
0.063743
0.0637434
0.0637438
0.0637443
0.0637447
0.0637451
0.0637456
0.063746
0.0637465
0.063747
0.0637475
0.063748
0.0637485
0.063749
0.0637496
0.0637501
0.0637507
0.0637513
0.0637519
0.0637525
0.0637531
0.0637538
0.0637544
0.0637551
0.0637558
0.0637566
0.0637573
0.0637581
0.0637589
0.0637597
0.0637605
0.0637614
0.0637623
0.0637632
0.0637641
0.0637651
0.063766
0.0637671
0.0637681
0.0637692
0.0637703
0.0637714
0.0637725
0.0637737
0.0637749
0.0637762
0.0637775
0.0637788
0.0637801
0.0637815
0.0637829
0.0637844
0.0637859
0.0637874
0.063789
0.0637906
0.0637923
0.063794
0.0637958
0.0637976
0.0637994
0.0638013
0.0638033
0.0638052
0.0638073
0.0638094
0.0638115
0.0638138
0.063816
0.0638183
0.0638207
0.0638232
0.0638257
0.0638283
0.0638309
0.0638336
0.0638364
0.0638393
0.0638422
0.0638452
0.0638483
0.0638515
0.0638547
0.0638581
0.0638615
0.063865
0.0638686
0.0638723
0.0638761
0.06388
0.0638841
0.0638882
0.0638924
0.0638967
0.0639012
0.0639058
0.0639105
0.0639153
0.0639203
0.0639254
0.0639306
0.063936
0.0639416
0.0639473
0.0639531
0.0639591
0.0639653
0.0639717
0.0639782
0.063985
0.0639919
0.063999
0.0640063
0.0640139
0.0640217
0.0640297
0.0640379
0.0640464
0.0640551
0.0640641
0.0640734
0.064083
0.0640928
0.064103
0.0641132
0.0641232
0.0641316
0.0641347
0.0637133
0.0662547
0.0678714
0.06869
0.0691193
0.069355
0.0694898
0.0695813
0.0696579
0.0697298
0.0698005
0.0698708
0.0699404
0.0700088
0.0700756
0.0701402
0.0702024
0.070262
0.070319
0.0703736
0.0704258
0.0704759
0.0705242
0.0705708
0.0706162
0.0706604
0.0707036
0.0707459
0.0707874
0.0708281
0.0708678
0.0709065
0.0709441
0.0709803
0.071015
0.0710481
0.0710794
0.0711088
0.0711363
0.0711618
0.0711853
0.0712068
0.0712264
0.071244
0.0712597
0.0712734
0.0712852
0.0712949
0.0713023
0.0713073
0.0713096
0.0713089
0.0713046
0.0712964
0.0712837
0.0712659
0.0712424
0.0712125
0.0711755
0.0711305
0.071077
0.0710142
0.0709412
0.0708575
0.0707623
0.0706551
0.0705353
0.0704025
0.0702564
0.0700967
0.0699236
0.069737
0.0695373
0.0693249
0.0691007
0.0688654
0.0686202
0.0683663
0.0681052
0.0678384
0.0675678
0.0672952
0.0670224
0.0667515
0.0664842
0.0662224
0.0659679
0.0657221
0.0654864
0.0652618
0.065049
0.0648485
0.0646603
0.0644842
0.0643194
0.0641651
0.0640198
0.0638822
0.0637504
0.0636225
0.0634967
0.0633709
0.0632433
0.063112
0.0629755
0.0628325
0.0626817
0.0625225
0.0623542
0.0621768
0.0619902
0.0617949
0.0615916
0.0613813
0.061165
0.0609441
0.0607201
0.0604947
0.0602696
0.0600466
0.0598274
0.059614
0.0594082
0.0592116
0.0590261
0.0588531
0.0586943
0.0585509
0.0584243
0.0583154
0.0582253
0.0581545
0.0581037
0.0580732
0.0580632
0.0580735
0.0581039
0.058154
0.058223
0.0583102
0.0584144
0.0585346
0.0586694
0.0588174
0.0589771
0.0591468
0.059325
0.0595099
0.0597
0.0598937
0.0600893
0.0602855
0.0604807
0.0606739
0.0608638
0.0610493
0.0612297
0.0614041
0.0615719
0.0617326
0.0618858
0.0620313
0.0621689
0.0622985
0.0624201
0.0625338
0.0626399
0.0627384
0.0628297
0.062914
0.0629916
0.0630629
0.0631282
0.0631878
0.0632422
0.0632917
0.0633365
0.0633771
0.0634138
0.0634468
0.0634766
0.0635032
0.0635271
0.0635485
0.0635676
0.0635846
0.0635997
0.0636131
0.063625
0.0636355
0.0636448
0.063653
0.0636602
0.0636666
0.0636722
0.0636771
0.0636814
0.0636852
0.0636885
0.0636915
0.063694
0.0636963
0.0636983
0.0637001
0.0637017
0.0637031
0.0637043
0.0637055
0.0637065
0.0637074
0.0637083
0.0637091
0.0637098
0.0637106
0.0637112
0.0637119
0.0637125
0.0637131
0.0637137
0.0637142
0.0637148
0.0637154
0.0637159
0.0637164
0.063717
0.0637175
0.063718
0.0637186
0.0637191
0.0637196
0.0637201
0.0637206
0.0637211
0.0637216
0.0637221
0.0637226
0.0637231
0.0637236
0.0637241
0.0637245
0.063725
0.0637254
0.0637259
0.0637263
0.0637267
0.0637272
0.0637276
0.063728
0.0637284
0.0637288
0.0637292
0.0637296
0.06373
0.0637303
0.0637307
0.0637311
0.0637314
0.0637318
0.0637322
0.0637325
0.0637329
0.0637332
0.0637336
0.063734
0.0637343
0.0637347
0.063735
0.0637354
0.0637358
0.0637362
0.0637365
0.0637369
0.0637373
0.0637377
0.0637381
0.0637385
0.0637389
0.0637394
0.0637398
0.0637403
0.0637407
0.0637412
0.0637417
0.0637422
0.0637427
0.0637432
0.0637437
0.0637443
0.0637449
0.0637454
0.063746
0.0637467
0.0637473
0.0637479
0.0637486
0.0637493
0.06375
0.0637507
0.0637515
0.0637522
0.063753
0.0637538
0.0637547
0.0637555
0.0637564
0.0637573
0.0637582
0.0637592
0.0637601
0.0637612
0.0637622
0.0637632
0.0637643
0.0637655
0.0637666
0.0637678
0.063769
0.0637702
0.0637715
0.0637728
0.0637742
0.0637756
0.063777
0.0637785
0.0637799
0.0637815
0.0637831
0.0637847
0.0637863
0.063788
0.0637898
0.0637916
0.0637934
0.0637953
0.0637973
0.0637992
0.0638013
0.0638034
0.0638055
0.0638077
0.06381
0.0638123
0.0638147
0.0638171
0.0638196
0.0638222
0.0638249
0.0638276
0.0638304
0.0638332
0.0638361
0.0638391
0.0638422
0.0638454
0.0638486
0.063852
0.0638554
0.0638589
0.0638625
0.0638662
0.06387
0.0638739
0.0638779
0.063882
0.0638862
0.0638906
0.063895
0.0638996
0.0639043
0.0639091
0.0639141
0.0639192
0.0639244
0.0639298
0.0639354
0.063941
0.0639469
0.0639529
0.0639591
0.0639654
0.063972
0.0639787
0.0639856
0.0639928
0.0640001
0.0640076
0.0640154
0.0640234
0.0640316
0.0640401
0.0640489
0.0640579
0.0640672
0.0640767
0.0640866
0.0640967
0.064107
0.064117
0.0641254
0.0641286
0.0627758
0.0647435
0.066412
0.067656
0.0685554
0.0691895
0.069622
0.0699149
0.0701177
0.0702627
0.0703706
0.0704549
0.0705239
0.0705828
0.0706347
0.0706816
0.0707246
0.0707647
0.0708023
0.0708379
0.0708718
0.0709045
0.0709362
0.0709672
0.0709977
0.0710279
0.0710579
0.0710878
0.0711175
0.071147
0.0711762
0.071205
0.071233
0.0712602
0.0712863
0.0713111
0.0713345
0.0713564
0.0713766
0.0713952
0.071412
0.0714272
0.0714406
0.0714524
0.0714625
0.0714709
0.0714775
0.0714823
0.071485
0.0714854
0.0714832
0.0714781
0.0714696
0.0714572
0.0714404
0.0714185
0.0713909
0.0713569
0.0713158
0.0712667
0.0712091
0.071142
0.0710648
0.0709768
0.0708772
0.0707654
0.0706409
0.0705033
0.0703521
0.0701873
0.0700086
0.0698162
0.0696104
0.0693916
0.0691606
0.068918
0.0686651
0.0684031
0.0681333
0.0678575
0.0675774
0.0672947
0.0670115
0.0667298
0.0664514
0.0661783
0.0659123
0.065655
0.0654079
0.065172
0.0649484
0.0647375
0.0645396
0.0643545
0.0641818
0.0640204
0.0638694
0.0637272
0.0635922
0.0634625
0.0633363
0.0632115
0.0630863
0.0629588
0.0628274
0.0626906
0.0625473
0.0623965
0.0622376
0.0620703
0.0618947
0.061711
0.0615199
0.0613221
0.0611187
0.060911
0.0607004
0.0604885
0.0602769
0.0600675
0.0598618
0.0596618
0.0594692
0.0592857
0.0591129
0.0589524
0.0588056
0.0586739
0.0585584
0.0584602
0.0583801
0.0583188
0.0582768
0.0582544
0.0582516
0.0582683
0.0583043
0.058359
0.0584317
0.0585216
0.0586277
0.0587487
0.0588833
0.0590302
0.0591878
0.0593546
0.059529
0.0597095
0.0598943
0.0600821
0.0602713
0.0604606
0.0606486
0.0608342
0.0610163
0.0611939
0.0613662
0.0615326
0.0616924
0.0618453
0.0619908
0.0621288
0.0622592
0.0623818
0.0624968
0.0626042
0.0627042
0.0627971
0.062883
0.0629623
0.0630352
0.0631022
0.0631634
0.0632194
0.0632703
0.0633166
0.0633585
0.0633964
0.0634307
0.0634615
0.0634892
0.063514
0.0635363
0.0635561
0.0635738
0.0635896
0.0636036
0.063616
0.063627
0.0636368
0.0636453
0.0636529
0.0636596
0.0636654
0.0636706
0.0636751
0.063679
0.0636825
0.0636856
0.0636882
0.0636906
0.0636927
0.0636945
0.0636961
0.0636975
0.0636988
0.0637
0.063701
0.0637019
0.0637028
0.0637036
0.0637043
0.063705
0.0637056
0.0637062
0.0637068
0.0637074
0.0637079
0.0637085
0.063709
0.0637095
0.06371
0.0637105
0.063711
0.0637115
0.063712
0.0637125
0.063713
0.0637135
0.063714
0.0637145
0.0637149
0.0637154
0.0637159
0.0637163
0.0637168
0.0637172
0.0637177
0.0637181
0.0637186
0.063719
0.0637194
0.0637198
0.0637202
0.0637206
0.063721
0.0637214
0.0637218
0.0637222
0.0637226
0.0637229
0.0637233
0.0637237
0.063724
0.0637244
0.0637247
0.0637251
0.0637254
0.0637258
0.0637261
0.0637265
0.0637268
0.0637271
0.0637275
0.0637278
0.0637282
0.0637285
0.0637289
0.0637292
0.0637296
0.06373
0.0637303
0.0637307
0.0637311
0.0637315
0.0637319
0.0637323
0.0637327
0.0637331
0.0637336
0.063734
0.0637345
0.063735
0.0637354
0.0637359
0.0637364
0.063737
0.0637375
0.0637381
0.0637386
0.0637392
0.0637398
0.0637404
0.0637411
0.0637417
0.0637424
0.0637431
0.0637438
0.0637445
0.0637453
0.0637461
0.0637469
0.0637477
0.0637485
0.0637494
0.0637503
0.0637512
0.0637521
0.0637531
0.0637541
0.0637551
0.0637562
0.0637572
0.0637584
0.0637595
0.0637607
0.0637619
0.0637631
0.0637643
0.0637656
0.063767
0.0637683
0.0637697
0.0637712
0.0637727
0.0637742
0.0637757
0.0637773
0.063779
0.0637807
0.0637824
0.0637842
0.063786
0.0637878
0.0637898
0.0637917
0.0637937
0.0637958
0.0637979
0.0638001
0.0638023
0.0638046
0.063807
0.0638094
0.0638119
0.0638144
0.063817
0.0638197
0.0638225
0.0638253
0.0638282
0.0638311
0.0638342
0.0638373
0.0638405
0.0638438
0.0638472
0.0638507
0.0638542
0.0638579
0.0638617
0.0638655
0.0638695
0.0638735
0.0638777
0.063882
0.0638864
0.0638909
0.0638956
0.0639004
0.0639053
0.0639103
0.0639155
0.0639208
0.0639263
0.0639319
0.0639377
0.0639436
0.0639498
0.063956
0.0639625
0.0639692
0.063976
0.0639831
0.0639903
0.0639978
0.0640055
0.0640134
0.0640215
0.0640299
0.0640386
0.0640475
0.0640567
0.0640662
0.0640759
0.0640859
0.0640961
0.064106
0.0641144
0.0641177
0.0620605
0.0633079
0.0646066
0.0658313
0.0669146
0.067828
0.0685669
0.069149
0.0696021
0.0699534
0.0702261
0.0704392
0.0706072
0.0707413
0.0708498
0.0709386
0.0710124
0.0710745
0.0711274
0.0711733
0.0712136
0.0712495
0.0712822
0.0713124
0.0713407
0.0713677
0.0713938
0.0714192
0.071444
0.0714683
0.0714921
0.0715152
0.0715376
0.0715591
0.0715795
0.0715986
0.0716164
0.0716327
0.0716474
0.0716605
0.0716721
0.071682
0.0716903
0.0716971
0.0717024
0.071706
0.0717081
0.0717084
0.0717068
0.071703
0.0716967
0.0716876
0.0716753
0.0716591
0.0716386
0.0716131
0.071582
0.0715446
0.0715001
0.0714477
0.0713868
0.0713166
0.0712362
0.0711449
0.0710422
0.0709272
0.0707994
0.0706583
0.0705036
0.0703349
0.0701522
0.0699553
0.0697446
0.0695204
0.0692834
0.0690341
0.0687738
0.0685036
0.0682247
0.0679389
0.0676479
0.0673534
0.0670574
0.066762
0.0664691
0.0661808
0.065899
0.0656254
0.0653618
0.0651094
0.0648693
0.0646424
0.0644292
0.0642297
0.0640437
0.0638707
0.0637095
0.0635591
0.0634178
0.0632841
0.063156
0.0630315
0.0629089
0.0627862
0.0626616
0.0625337
0.0624009
0.0622624
0.0621172
0.0619649
0.0618052
0.0616384
0.0614647
0.0612849
0.0610998
0.0609105
0.0607184
0.0605249
0.0603315
0.0601399
0.0599517
0.0597685
0.0595922
0.0594244
0.0592665
0.0591202
0.0589868
0.0588676
0.0587637
0.0586762
0.0586058
0.0585531
0.0585186
0.0585027
0.0585052
0.0585262
0.0585653
0.058622
0.0586956
0.0587852
0.0588898
0.0590084
0.0591396
0.059282
0.0594343
0.059595
0.0597625
0.0599353
0.060112
0.0602912
0.0604713
0.0606512
0.0608297
0.0610056
0.0611779
0.0613458
0.0615085
0.0616654
0.061816
0.0619599
0.0620968
0.0622265
0.0623489
0.062464
0.0625718
0.0626725
0.0627662
0.0628531
0.0629335
0.0630076
0.0630757
0.0631382
0.0631954
0.0632476
0.0632951
0.0633382
0.0633773
0.0634126
0.0634445
0.0634731
0.0634989
0.063522
0.0635426
0.063561
0.0635775
0.0635921
0.063605
0.0636165
0.0636267
0.0636357
0.0636436
0.0636506
0.0636567
0.0636621
0.0636669
0.063671
0.0636747
0.0636778
0.0636806
0.0636831
0.0636852
0.0636871
0.0636888
0.0636903
0.0636916
0.0636927
0.0636938
0.0636947
0.0636955
0.0636963
0.063697
0.0636977
0.0636983
0.0636989
0.0636995
0.0637
0.0637005
0.063701
0.0637015
0.063702
0.0637024
0.0637029
0.0637034
0.0637038
0.0637043
0.0637047
0.0637052
0.0637056
0.0637061
0.0637065
0.0637069
0.0637074
0.0637078
0.0637082
0.0637087
0.0637091
0.0637095
0.0637099
0.0637103
0.0637107
0.0637111
0.0637115
0.0637119
0.0637123
0.0637126
0.063713
0.0637134
0.0637137
0.0637141
0.0637144
0.0637148
0.0637151
0.0637155
0.0637158
0.0637161
0.0637165
0.0637168
0.0637171
0.0637174
0.0637178
0.0637181
0.0637184
0.0637187
0.0637191
0.0637194
0.0637197
0.06372
0.0637204
0.0637207
0.0637211
0.0637214
0.0637218
0.0637221
0.0637225
0.0637229
0.0637233
0.0637236
0.063724
0.0637245
0.0637249
0.0637253
0.0637258
0.0637262
0.0637267
0.0637272
0.0637277
0.0637282
0.0637287
0.0637292
0.0637298
0.0637303
0.0637309
0.0637315
0.0637322
0.0637328
0.0637335
0.0637341
0.0637348
0.0637355
0.0637363
0.063737
0.0637378
0.0637386
0.0637394
0.0637403
0.0637412
0.0637421
0.063743
0.0637439
0.0637449
0.0637459
0.0637469
0.063748
0.0637491
0.0637502
0.0637513
0.0637525
0.0637537
0.0637549
0.0637562
0.0637575
0.0637588
0.0637602
0.0637616
0.0637631
0.0637646
0.0637661
0.0637677
0.0637693
0.0637709
0.0637726
0.0637743
0.0637761
0.063778
0.0637798
0.0637818
0.0637837
0.0637858
0.0637878
0.06379
0.0637922
0.0637944
0.0637967
0.0637991
0.0638015
0.063804
0.0638066
0.0638092
0.0638119
0.0638147
0.0638175
0.0638204
0.0638234
0.0638265
0.0638296
0.0638328
0.0638362
0.0638396
0.0638431
0.0638466
0.0638503
0.0638541
0.063858
0.063862
0.0638661
0.0638703
0.0638746
0.063879
0.0638836
0.0638883
0.0638931
0.063898
0.0639031
0.0639084
0.0639137
0.0639192
0.0639249
0.0639308
0.0639368
0.0639429
0.0639493
0.0639558
0.0639625
0.0639695
0.0639766
0.0639839
0.0639915
0.0639992
0.0640072
0.0640155
0.064024
0.0640327
0.0640418
0.0640511
0.0640606
0.0640705
0.0640805
0.0640902
0.0640984
0.0641018
0.0616767
0.0623979
0.0632479
0.0641734
0.0651153
0.0660227
0.0668574
0.0675984
0.0682404
0.0687876
0.0692489
0.0696351
0.0699575
0.0702266
0.0704513
0.0706395
0.0707976
0.0709311
0.0710442
0.0711407
0.0712236
0.0712953
0.071358
0.0714133
0.0714628
0.0715074
0.0715482
0.0715858
0.0716208
0.0716535
0.0716842
0.071713
0.0717399
0.0717649
0.071788
0.0718092
0.0718283
0.0718455
0.0718606
0.0718738
0.071885
0.0718943
0.0719018
0.0719075
0.0719115
0.0719139
0.0719145
0.0719133
0.0719101
0.0719047
0.0718969
0.0718861
0.0718722
0.0718544
0.0718324
0.0718054
0.0717729
0.0717341
0.0716883
0.0716348
0.0715728
0.0715016
0.0714204
0.0713283
0.0712248
0.0711092
0.0709807
0.0708389
0.0706834
0.0705137
0.0703296
0.0701311
0.0699183
0.0696914
0.0694509
0.0691975
0.0689321
0.0686557
0.0683696
0.0680753
0.0677745
0.067469
0.0671607
0.0668516
0.0665439
0.0662396
0.0659407
0.0656492
0.0653669
0.0650954
0.0648362
0.0645903
0.0643586
0.0641414
0.0639388
0.0637507
0.0635762
0.0634146
0.0632644
0.0631243
0.0629924
0.062867
0.062746
0.0626277
0.0625101
0.0623916
0.0622707
0.0621459
0.0620164
0.0618813
0.0617403
0.061593
0.0614398
0.061281
0.0611172
0.0609495
0.0607788
0.0606064
0.0604337
0.0602623
0.0600936
0.0599292
0.0597708
0.0596198
0.0594778
0.0593463
0.0592266
0.0591198
0.0590272
0.0589496
0.0588879
0.0588426
0.0588142
0.0588029
0.0588089
0.0588319
0.0588718
0.0589279
0.0589997
0.0590864
0.0591869
0.0593002
0.0594251
0.0595604
0.0597046
0.0598565
0.0600145
0.0601773
0.0603435
0.0605118
0.0606809
0.0608495
0.0610167
0.0611813
0.0613424
0.0614993
0.0616513
0.0617977
0.0619382
0.0620724
0.0622
0.0623209
0.0624349
0.062542
0.0626424
0.0627361
0.0628232
0.062904
0.0629788
0.0630477
0.0631111
0.0631692
0.0632223
0.0632708
0.0633149
0.0633549
0.0633912
0.063424
0.0634535
0.0634801
0.063504
0.0635254
0.0635446
0.0635617
0.0635769
0.0635904
0.0636024
0.0636131
0.0636225
0.0636308
0.0636381
0.0636445
0.0636502
0.0636552
0.0636595
0.0636634
0.0636667
0.0636697
0.0636722
0.0636745
0.0636764
0.0636782
0.0636797
0.063681
0.0636822
0.0636833
0.0636842
0.0636851
0.0636858
0.0636865
0.0636872
0.0636878
0.0636883
0.0636889
0.0636894
0.0636898
0.0636903
0.0636907
0.0636912
0.0636916
0.063692
0.0636925
0.0636929
0.0636933
0.0636937
0.0636941
0.0636945
0.0636949
0.0636953
0.0636957
0.0636961
0.0636965
0.0636969
0.0636973
0.0636976
0.063698
0.0636984
0.0636988
0.0636992
0.0636995
0.0636999
0.0637002
0.0637006
0.0637009
0.0637013
0.0637016
0.063702
0.0637023
0.0637026
0.0637029
0.0637033
0.0637036
0.0637039
0.0637042
0.0637045
0.0637048
0.0637051
0.0637054
0.0637057
0.063706
0.0637063
0.0637067
0.063707
0.0637073
0.0637076
0.0637079
0.0637082
0.0637085
0.0637088
0.0637092
0.0637095
0.0637098
0.0637102
0.0637105
0.0637109
0.0637112
0.0637116
0.063712
0.0637124
0.0637128
0.0637132
0.0637136
0.0637141
0.0637145
0.063715
0.0637155
0.063716
0.0637165
0.063717
0.0637175
0.0637181
0.0637186
0.0637192
0.0637198
0.0637204
0.0637211
0.0637217
0.0637224
0.0637231
0.0637238
0.0637245
0.0637253
0.0637261
0.0637269
0.0637277
0.0637286
0.0637294
0.0637303
0.0637312
0.0637322
0.0637332
0.0637342
0.0637352
0.0637362
0.0637373
0.0637384
0.0637396
0.0637408
0.063742
0.0637432
0.0637445
0.0637458
0.0637471
0.0637485
0.0637499
0.0637514
0.0637528
0.0637544
0.0637559
0.0637575
0.0637592
0.0637609
0.0637626
0.0637644
0.0637662
0.0637681
0.06377
0.063772
0.063774
0.0637761
0.0637783
0.0637804
0.0637827
0.063785
0.0637874
0.0637898
0.0637923
0.0637949
0.0637975
0.0638002
0.0638029
0.0638058
0.0638087
0.0638117
0.0638147
0.0638179
0.0638211
0.0638244
0.0638279
0.0638314
0.0638349
0.0638386
0.0638424
0.0638463
0.0638503
0.0638544
0.0638586
0.063863
0.0638674
0.063872
0.0638767
0.0638815
0.0638865
0.0638916
0.0638968
0.0639022
0.0639077
0.0639134
0.0639193
0.0639253
0.0639315
0.0639379
0.0639444
0.0639512
0.0639581
0.0639653
0.0639727
0.0639802
0.0639881
0.0639961
0.0640044
0.0640129
0.0640217
0.0640308
0.0640402
0.0640498
0.0640596
0.0640691
0.0640771
0.0640805
0.0614877
0.0619003
0.0624111
0.0630123
0.0636844
0.0644003
0.0651291
0.0658427
0.0665202
0.0671481
0.0677193
0.0682315
0.068686
0.0690864
0.0694373
0.0697438
0.070011
0.0702438
0.0704467
0.0706239
0.0707789
0.0709149
0.0710349
0.0711411
0.0712358
0.0713207
0.0713973
0.0714667
0.0715301
0.0715881
0.0716413
0.0716902
0.0717352
0.0717763
0.0718139
0.071848
0.0718788
0.0719063
0.0719308
0.0719522
0.0719709
0.0719869
0.0720003
0.0720114
0.0720202
0.0720269
0.0720314
0.0720336
0.0720336
0.0720311
0.0720259
0.0720177
0.072006
0.0719905
0.0719706
0.0719457
0.0719152
0.0718785
0.0718349
0.0717837
0.071724
0.0716553
0.0715766
0.0714873
0.0713867
0.071274
0.0711485
0.0710098
0.0708572
0.0706904
0.0705091
0.070313
0.0701022
0.0698768
0.0696371
0.0693836
0.069117
0.0688385
0.068549
0.0682499
0.0679429
0.0676297
0.0673121
0.0669922
0.066672
0.0663537
0.0660395
0.0657314
0.0654315
0.0651416
0.0648634
0.0645983
0.0643475
0.0641116
0.0638913
0.0636866
0.0634972
0.0633225
0.0631615
0.063013
0.0628755
0.0627472
0.0626263
0.0625109
0.0623991
0.062289
0.0621791
0.0620676
0.0619535
0.0618357
0.0617133
0.0615861
0.0614538
0.0613166
0.0611749
0.0610292
0.0608806
0.06073
0.0605787
0.0604279
0.0602791
0.0601337
0.0599932
0.0598591
0.0597328
0.0596156
0.0595089
0.0594138
0.0593314
0.0592626
0.0592082
0.0591688
0.0591448
0.0591365
0.0591439
0.059167
0.0592056
0.059259
0.0593268
0.0594083
0.0595025
0.0596084
0.0597249
0.0598508
0.059985
0.0601261
0.0602728
0.0604239
0.060578
0.060734
0.0608906
0.0610467
0.0612014
0.0613538
0.0615028
0.061648
0.0617885
0.061924
0.0620539
0.062178
0.062296
0.0624078
0.0625132
0.0626123
0.0627052
0.0627918
0.0628725
0.0629472
0.0630164
0.0630802
0.0631389
0.0631926
0.0632418
0.0632867
0.0633276
0.0633647
0.0633983
0.0634286
0.063456
0.0634807
0.0635028
0.0635226
0.0635404
0.0635562
0.0635703
0.0635828
0.063594
0.0636038
0.0636125
0.0636202
0.063627
0.063633
0.0636382
0.0636428
0.0636469
0.0636504
0.0636535
0.0636562
0.0636586
0.0636607
0.0636625
0.0636641
0.0636655
0.0636667
0.0636678
0.0636688
0.0636696
0.0636704
0.0636711
0.0636718
0.0636723
0.0636729
0.0636734
0.0636739
0.0636743
0.0636747
0.0636751
0.0636755
0.0636759
0.0636763
0.0636767
0.0636771
0.0636774
0.0636778
0.0636782
0.0636785
0.0636789
0.0636792
0.0636796
0.06368
0.0636803
0.0636807
0.063681
0.0636814
0.0636817
0.0636821
0.0636824
0.0636827
0.0636831
0.0636834
0.0636837
0.063684
0.0636844
0.0636847
0.063685
0.0636853
0.0636856
0.0636859
0.0636862
0.0636865
0.0636868
0.0636871
0.0636874
0.0636877
0.063688
0.0636883
0.0636886
0.0636889
0.0636891
0.0636894
0.0636897
0.06369
0.0636903
0.0636906
0.0636909
0.0636912
0.0636915
0.0636918
0.0636921
0.0636924
0.0636927
0.063693
0.0636934
0.0636937
0.063694
0.0636944
0.0636947
0.0636951
0.0636955
0.0636958
0.0636962
0.0636966
0.0636971
0.0636975
0.0636979
0.0636984
0.0636989
0.0636993
0.0636998
0.0637004
0.0637009
0.0637014
0.063702
0.0637026
0.0637032
0.0637038
0.0637044
0.0637051
0.0637057
0.0637064
0.0637071
0.0637079
0.0637086
0.0637094
0.0637102
0.063711
0.0637119
0.0637127
0.0637136
0.0637146
0.0637155
0.0637165
0.0637175
0.0637185
0.0637195
0.0637206
0.0637217
0.0637229
0.0637241
0.0637253
0.0637265
0.0637278
0.0637291
0.0637304
0.0637318
0.0637332
0.0637346
0.0637361
0.0637376
0.0637392
0.0637408
0.0637424
0.0637441
0.0637458
0.0637476
0.0637494
0.0637513
0.0637532
0.0637552
0.0637572
0.0637593
0.0637614
0.0637636
0.0637658
0.0637681
0.0637705
0.0637729
0.0637754
0.063778
0.0637806
0.0637833
0.063786
0.0637888
0.0637917
0.0637947
0.0637978
0.0638009
0.0638041
0.0638075
0.0638109
0.0638143
0.0638179
0.0638216
0.0638254
0.0638293
0.0638333
0.0638374
0.0638416
0.0638459
0.0638503
0.0638549
0.0638596
0.0638644
0.0638694
0.0638745
0.0638797
0.0638851
0.0638906
0.0638963
0.0639022
0.0639082
0.0639144
0.0639208
0.0639273
0.0639341
0.063941
0.0639482
0.0639556
0.0639632
0.063971
0.0639791
0.0639874
0.0639959
0.0640048
0.0640139
0.0640232
0.0640327
0.064042
0.0640499
0.0640532
0.0613933
0.0616403
0.0619453
0.0623133
0.0627448
0.0632341
0.0637694
0.0643348
0.0649139
0.0654914
0.0660542
0.0665926
0.0670997
0.0675712
0.0680053
0.0684018
0.0687617
0.0690871
0.0693802
0.0696437
0.0698806
0.0700934
0.0702848
0.0704574
0.0706133
0.0707546
0.070883
0.0710001
0.0711072
0.0712054
0.0712955
0.0713784
0.0714545
0.0715244
0.0715884
0.0716469
0.0717001
0.0717484
0.0717919
0.071831
0.071866
0.071897
0.0719244
0.0719484
0.0719692
0.071987
0.0720019
0.0720138
0.0720229
0.072029
0.0720318
0.0720313
0.0720269
0.0720184
0.0720053
0.0719871
0.0719632
0.071933
0.0718958
0.0718511
0.071798
0.071736
0.0716641
0.0715819
0.0714884
0.071383
0.071265
0.0711339
0.070989
0.0708298
0.070656
0.0704672
0.0702634
0.0700446
0.0698108
0.0695626
0.0693004
0.069025
0.0687375
0.0684391
0.0681312
0.0678154
0.0674936
0.0671678
0.0668399
0.0665122
0.0661869
0.0658663
0.0655524
0.0652473
0.0649529
0.064671
0.064403
0.06415
0.0639129
0.0636922
0.0634879
0.0632998
0.0631272
0.0629693
0.0628246
0.0626918
0.062569
0.0624545
0.0623463
0.0622425
0.0621414
0.0620412
0.0619404
0.0618378
0.0617323
0.0616233
0.0615103
0.0613932
0.061272
0.0611472
0.0610194
0.0608894
0.0607582
0.060627
0.0604969
0.0603693
0.0602456
0.0601271
0.0600151
0.059911
0.059816
0.0597311
0.0596575
0.059596
0.0595474
0.0595123
0.059491
0.059484
0.0594912
0.0595127
0.0595482
0.0595973
0.0596595
0.0597341
0.0598204
0.0599173
0.060024
0.0601393
0.0602622
0.0603914
0.0605257
0.060664
0.0608051
0.060948
0.0610914
0.0612345
0.0613763
0.0615159
0.0616526
0.0617858
0.0619147
0.062039
0.0621584
0.0622723
0.0623808
0.0624835
0.0625805
0.0626717
0.0627571
0.0628369
0.0629112
0.0629801
0.0630439
0.0631028
0.0631569
0.0632066
0.063252
0.0632935
0.0633312
0.0633656
0.0633966
0.0634248
0.0634501
0.0634729
0.0634934
0.0635118
0.0635283
0.063543
0.0635561
0.0635677
0.063578
0.0635872
0.0635953
0.0636024
0.0636088
0.0636143
0.0636192
0.0636235
0.0636272
0.0636305
0.0636334
0.063636
0.0636382
0.0636401
0.0636418
0.0636433
0.0636446
0.0636457
0.0636468
0.0636477
0.0636485
0.0636492
0.0636498
0.0636504
0.0636509
0.0636514
0.0636519
0.0636523
0.0636527
0.0636531
0.0636535
0.0636539
0.0636542
0.0636546
0.0636549
0.0636552
0.0636556
0.0636559
0.0636562
0.0636565
0.0636569
0.0636572
0.0636575
0.0636578
0.0636581
0.0636584
0.0636588
0.0636591
0.0636594
0.0636597
0.06366
0.0636603
0.0636606
0.0636609
0.0636612
0.0636615
0.0636618
0.0636621
0.0636624
0.0636627
0.0636629
0.0636632
0.0636635
0.0636638
0.0636641
0.0636643
0.0636646
0.0636649
0.0636652
0.0636654
0.0636657
0.063666
0.0636663
0.0636665
0.0636668
0.0636671
0.0636674
0.0636676
0.0636679
0.0636682
0.0636685
0.0636688
0.0636691
0.0636694
0.0636697
0.06367
0.0636703
0.0636706
0.0636709
0.0636713
0.0636716
0.0636719
0.0636723
0.0636727
0.063673
0.0636734
0.0636738
0.0636742
0.0636747
0.0636751
0.0636755
0.063676
0.0636765
0.063677
0.0636775
0.063678
0.0636786
0.0636791
0.0636797
0.0636803
0.0636809
0.0636815
0.0636822
0.0636828
0.0636835
0.0636842
0.063685
0.0636857
0.0636865
0.0636873
0.0636881
0.063689
0.0636898
0.0636907
0.0636916
0.0636926
0.0636935
0.0636945
0.0636956
0.0636966
0.0636977
0.0636988
0.0636999
0.0637011
0.0637023
0.0637035
0.0637048
0.0637061
0.0637074
0.0637088
0.0637102
0.0637116
0.0637131
0.0637146
0.0637161
0.0637177
0.0637194
0.063721
0.0637228
0.0637245
0.0637263
0.0637282
0.0637301
0.0637321
0.0637341
0.0637361
0.0637383
0.0637404
0.0637427
0.0637449
0.0637473
0.0637497
0.0637522
0.0637547
0.0637573
0.06376
0.0637627
0.0637655
0.0637684
0.0637714
0.0637744
0.0637776
0.0637808
0.0637841
0.0637874
0.0637909
0.0637945
0.0637982
0.0638019
0.0638058
0.0638098
0.0638138
0.063818
0.0638223
0.0638268
0.0638313
0.063836
0.0638408
0.0638457
0.0638508
0.063856
0.0638614
0.0638669
0.0638726
0.0638784
0.0638845
0.0638906
0.063897
0.0639036
0.0639103
0.0639173
0.0639244
0.0639318
0.0639394
0.0639472
0.0639553
0.0639636
0.0639721
0.063981
0.06399
0.0639993
0.0640083
0.0640159
0.0640193
0.0613431
0.0615016
0.0616917
0.0619186
0.0621871
0.0624999
0.0628561
0.0632516
0.0636796
0.0641317
0.0645986
0.0650714
0.0655416
0.0660021
0.0664471
0.0668724
0.0672748
0.0676528
0.0680056
0.0683332
0.0686363
0.0689161
0.0691739
0.0694113
0.0696299
0.0698313
0.0700171
0.0701887
0.0703473
0.0704941
0.0706301
0.070756
0.0708727
0.0709806
0.0710804
0.0711724
0.0712571
0.071335
0.0714063
0.0714714
0.0715308
0.0715848
0.0716338
0.071678
0.0717179
0.0717536
0.0717854
0.0718134
0.0718377
0.0718582
0.0718748
0.0718874
0.0718958
0.0718995
0.0718983
0.0718917
0.0718791
0.0718602
0.0718342
0.0718006
0.0717587
0.0717079
0.0716476
0.0715769
0.0714952
0.0714019
0.0712962
0.0711774
0.0710451
0.0708986
0.0707375
0.0705614
0.07037
0.0701633
0.0699413
0.0697042
0.0694524
0.0691865
0.0689073
0.0686158
0.0683134
0.0680015
0.067682
0.0673566
0.0670274
0.0666965
0.0663662
0.0660388
0.0657164
0.0654014
0.0650959
0.0648016
0.0645205
0.064254
0.0640031
0.0637687
0.0635514
0.0633511
0.0631675
0.0630001
0.0628477
0.0627092
0.0625829
0.0624672
0.0623602
0.06226
0.0621648
0.0620726
0.061982
0.0618913
0.0617995
0.0617054
0.0616085
0.0615083
0.0614047
0.0612978
0.061188
0.0610759
0.0609623
0.0608481
0.0607344
0.0606224
0.0605133
0.0604084
0.0603088
0.0602158
0.0601306
0.0600542
0.0599877
0.0599318
0.0598873
0.0598549
0.0598349
0.0598277
0.0598333
0.0598518
0.059883
0.0599266
0.0599821
0.0600489
0.0601263
0.0602135
0.0603096