/*--------------------------------*- C++ -*----------------------------------*\
| =========                 |                                                 |
| \\      /  F ield         | OpenFOAM: The Open Source CFD Toolbox           |
|  \\    /   O peration     | Version:  2506                                  |
|   \\  /    A nd           | Website:  www.openfoam.com                      |
|    \\/     M anipulation  |                                                 |
\*---------------------------------------------------------------------------*/
FoamFile
{
    version     2.0;
    format      ascii;
    arch        "LSB;label=32;scalar=64";
    class       volScalarField;
    location    "100";
    object      p;
}
// * * * * * * * * * * * * * * * * * * * * * * * * * * * * * * * * * * * * * //

dimensions      [0 2 -2 0 0 0 0];

internalField   nonuniform List<scalar> 
131949
(
-34.8387
-27.2301
-23.5513
-22.1803
-20.9514
-19.8049
-18.8948
-18.145
-17.4856
-16.8978
-16.3716
-15.8952
-15.4595
-15.0582
-14.6863
-14.34
-14.0161
-13.7117
-13.4248
-13.1535
-12.8962
-12.6515
-12.4183
-12.1956
-11.9825
-11.7782
-11.5821
-11.3936
-11.212
-11.037
-10.8681
-10.7049
-10.547
-10.3942
-10.2462
-10.1027
-9.96334
-9.82805
-9.69656
-9.5687
-9.44428
-9.32314
-9.20513
-9.09011
-8.97794
-8.86851
-8.76168
-8.65737
-8.55546
-8.45586
-8.35847
-8.26323
-8.17004
-8.07884
-7.98954
-7.90209
-7.81642
-7.73247
-7.65017
-7.56948
-7.49033
-7.41267
-7.33646
-7.26164
-7.18817
-7.116
-7.04508
-6.97537
-6.90683
-6.83941
-6.77307
-6.70777
-6.64346
-6.5801
-6.51764
-6.45603
-6.39522
-6.33517
-6.27581
-6.2171
-6.15899
-6.10142
-6.04433
-5.98768
-5.9314
-5.87544
-5.81974
-5.76425
-5.70891
-5.65368
-5.5985
-5.54336
-5.4882
-5.43302
-5.3778
-5.32254
-5.26725
-5.21193
-5.15664
-5.10139
-5.04623
-4.99123
-4.93645
-4.88195
-4.8278
-4.77409
-4.72089
-4.66829
-4.61636
-4.56516
-4.51479
-4.46529
-4.41673
-4.36915
-4.3226
-4.27712
-4.23272
-4.18942
-4.14723
-4.10615
-4.06617
-4.02727
-3.98943
-3.95262
-3.9168
-3.88193
-3.84798
-3.81489
-3.78262
-3.75113
-3.72036
-3.69026
-3.66079
-3.63191
-3.60357
-3.57573
-3.54834
-3.52138
-3.49481
-3.4686
-3.44272
-3.41715
-3.39186
-3.36683
-3.34206
-3.31752
-3.29319
-3.26908
-3.24518
-3.22147
-3.19795
-3.17461
-3.15146
-3.12849
-3.1057
-3.08308
-3.06065
-3.03838
-3.0163
-2.99438
-2.97265
-2.95108
-2.92969
-2.90847
-2.88741
-2.86653
-2.84582
-2.82527
-2.80489
-2.78467
-2.76461
-2.74471
-2.72496
-2.70536
-2.68592
-2.66662
-2.64747
-2.62846
-2.60959
-2.59085
-2.57225
-2.55377
-2.53542
-2.51719
-2.49908
-2.48108
-2.4632
-2.44543
-2.42777
-2.41021
-2.39275
-2.37539
-2.35812
-2.34095
-2.32386
-2.30686
-2.28995
-2.27312
-2.25637
-2.2397
-2.2231
-2.20657
-2.19012
-2.17374
-2.15742
-2.14117
-2.12498
-2.10885
-2.09279
-2.07678
-2.06083
-2.04494
-2.0291
-2.01332
-1.99759
-1.98191
-1.96628
-1.95071
-1.93518
-1.9197
-1.90427
-1.88888
-1.87354
-1.85825
-1.843
-1.8278
-1.81265
-1.79754
-1.78247
-1.76745
-1.75247
-1.73754
-1.72265
-1.70781
-1.69301
-1.67826
-1.66355
-1.64889
-1.63427
-1.61969
-1.60517
-1.59068
-1.57625
-1.56186
-1.54752
-1.53323
-1.51898
-1.50479
-1.49064
-1.47654
-1.46249
-1.44849
-1.43455
-1.42065
-1.40681
-1.39302
-1.37928
-1.3656
-1.35197
-1.33839
-1.32487
-1.31141
-1.298
-1.28465
-1.27135
-1.25812
-1.24494
-1.23182
-1.21876
-1.20576
-1.19281
-1.17993
-1.16711
-1.15435
-1.14165
-1.12901
-1.11644
-1.10393
-1.09147
-1.07909
-1.06676
-1.0545
-1.0423
-1.03017
-1.0181
-1.0061
-0.994156
-0.982279
-0.970468
-0.958721
-0.947038
-0.935421
-0.923868
-0.91238
-0.900958
-0.8896
-0.878307
-0.867079
-0.855915
-0.844817
-0.833782
-0.822813
-0.811907
-0.801066
-0.790289
-0.779576
-0.768927
-0.758341
-0.747818
-0.737358
-0.726961
-0.716626
-0.706354
-0.696144
-0.685995
-0.675908
-0.665882
-0.655917
-0.646012
-0.636167
-0.626382
-0.616657
-0.60699
-0.597382
-0.587833
-0.578341
-0.568907
-0.55953
-0.550209
-0.540945
-0.531737
-0.522584
-0.513487
-0.504444
-0.495455
-0.48652
-0.477639
-0.46881
-0.460034
-0.45131
-0.442638
-0.434017
-0.425447
-0.416927
-0.408458
-0.400037
-0.391666
-0.383344
-0.37507
-0.366844
-0.358665
-0.350534
-0.342449
-0.334411
-0.326418
-0.318471
-0.310569
-0.302713
-0.2949
-0.287132
-0.279408
-0.271728
-0.264091
-0.256497
-0.248945
-0.241437
-0.233971
-0.226547
-0.219165
-0.211825
-0.204526
-0.19727
-0.190055
-0.182882
-0.175751
-0.168661
-0.161613
-0.154608
-0.147644
-0.140724
-0.133847
-0.127013
-0.120224
-0.113479
-0.106781
-0.10013
-0.0935281
-0.0869758
-0.0804754
-0.0740288
-0.0676387
-0.0613085
-0.0550414
-0.0488451
-0.0427139
-0.0367043
-0.0306219
-0.0253397
-0.0172713
-0.0230087
-27.2896
-24.7245
-22.7589
-21.6044
-20.5645
-19.5795
-18.7427
-18.0299
-17.3977
-16.8293
-16.3163
-15.8496
-15.4213
-15.0257
-14.6584
-14.3157
-13.9946
-13.6927
-13.4079
-13.1383
-12.8824
-12.639
-12.4069
-12.1852
-11.9729
-11.7694
-11.5739
-11.3859
-11.2049
-11.0304
-10.8619
-10.6991
-10.5416
-10.3891
-10.2414
-10.0981
-9.95899
-9.82392
-9.69263
-9.56495
-9.44069
-9.31971
-9.20184
-9.08695
-8.9749
-8.86557
-8.75885
-8.65463
-8.5528
-8.45327
-8.35596
-8.26078
-8.16764
-8.07648
-7.98722
-7.8998
-7.81414
-7.7302
-7.6479
-7.5672
-7.48804
-7.41036
-7.33412
-7.25926
-7.18573
-7.1135
-7.04251
-6.97272
-6.90408
-6.83656
-6.77012
-6.7047
-6.64026
-6.57676
-6.51416
-6.4524
-6.39143
-6.33121
-6.2717
-6.21283
-6.15455
-6.09683
-6.0396
-5.98281
-5.92642
-5.87036
-5.81458
-5.75904
-5.70367
-5.64844
-5.59331
-5.53823
-5.48317
-5.42812
-5.37306
-5.31799
-5.26292
-5.20786
-5.15283
-5.09787
-5.04303
-4.98836
-4.93391
-4.87975
-4.82596
-4.7726
-4.71975
-4.66749
-4.61589
-4.56502
-4.51496
-4.46576
-4.41748
-4.37017
-4.32388
-4.27863
-4.23444
-4.19135
-4.14934
-4.10842
-4.06858
-4.0298
-3.99207
-3.95534
-3.9196
-3.88479
-3.85088
-3.81782
-3.78557
-3.75407
-3.72329
-3.69318
-3.66368
-3.63476
-3.60637
-3.57847
-3.55103
-3.524
-3.49736
-3.47108
-3.44512
-3.41947
-3.3941
-3.36899
-3.34414
-3.31951
-3.29511
-3.27092
-3.24694
-3.22315
-3.19956
-3.17615
-3.15293
-3.12989
-3.10704
-3.08436
-3.06187
-3.03955
-3.01741
-2.99545
-2.97366
-2.95205
-2.93062
-2.90936
-2.88827
-2.86736
-2.84661
-2.82603
-2.80562
-2.78537
-2.76529
-2.74536
-2.72559
-2.70598
-2.68651
-2.6672
-2.64803
-2.629
-2.61011
-2.59136
-2.57274
-2.55425
-2.53589
-2.51765
-2.49953
-2.48152
-2.46363
-2.44585
-2.42818
-2.41061
-2.39314
-2.37577
-2.3585
-2.34132
-2.32422
-2.30722
-2.2903
-2.27346
-2.25671
-2.24003
-2.22342
-2.20689
-2.19043
-2.17404
-2.15772
-2.14146
-2.12527
-2.10914
-2.09307
-2.07706
-2.06111
-2.04521
-2.02937
-2.01358
-1.99785
-1.98216
-1.96653
-1.95095
-1.93542
-1.91993
-1.9045
-1.88911
-1.87377
-1.85847
-1.84322
-1.82802
-1.81286
-1.79774
-1.78267
-1.76765
-1.75267
-1.73773
-1.72284
-1.70799
-1.69319
-1.67843
-1.66372
-1.64905
-1.63443
-1.61986
-1.60533
-1.59084
-1.5764
-1.56201
-1.54767
-1.53337
-1.51912
-1.50492
-1.49077
-1.47667
-1.46262
-1.44862
-1.43467
-1.42078
-1.40693
-1.39314
-1.3794
-1.36571
-1.35208
-1.3385
-1.32498
-1.31152
-1.29811
-1.28475
-1.27146
-1.25822
-1.24504
-1.23192
-1.21885
-1.20585
-1.19291
-1.18002
-1.1672
-1.15444
-1.14174
-1.1291
-1.11653
-1.10401
-1.09156
-1.07917
-1.06685
-1.05459
-1.04239
-1.03026
-1.01819
-1.00618
-0.994242
-0.982365
-0.970554
-0.958807
-0.947125
-0.935507
-0.923955
-0.912468
-0.901046
-0.889688
-0.878396
-0.867168
-0.856006
-0.844908
-0.833874
-0.822906
-0.812001
-0.801161
-0.790385
-0.779673
-0.769024
-0.758439
-0.747918
-0.737459
-0.727064
-0.71673
-0.70646
-0.696251
-0.686104
-0.676018
-0.665993
-0.65603
-0.646127
-0.636283
-0.6265
-0.616776
-0.607111
-0.597505
-0.587957
-0.578468
-0.569035
-0.55966
-0.550342
-0.54108
-0.531874
-0.522723
-0.513628
-0.504587
-0.495601
-0.486668
-0.477789
-0.468963
-0.460189
-0.451468
-0.442798
-0.434179
-0.425612
-0.417095
-0.408627
-0.40021
-0.391842
-0.383522
-0.375251
-0.367027
-0.358852
-0.350723
-0.342641
-0.334606
-0.326616
-0.318672
-0.310774
-0.30292
-0.295111
-0.287347
-0.279626
-0.271949
-0.264315
-0.256724
-0.249177
-0.241672
-0.234209
-0.226789
-0.219411
-0.212074
-0.20478
-0.197527
-0.190317
-0.183147
-0.17602
-0.168935
-0.161891
-0.15489
-0.147931
-0.141014
-0.134141
-0.127312
-0.120527
-0.113787
-0.107093
-0.100446
-0.0938477
-0.0872993
-0.0808023
-0.0743589
-0.0679713
-0.0616427
-0.0553764
-0.049179
-0.0430469
-0.0370245
-0.0309629
-0.025556
-0.0179779
-0.0222284
-24.0788
-23.278
-22.0394
-20.9904
-20.0936
-19.2591
-18.5089
-17.8468
-17.2524
-16.7127
-16.2205
-15.7695
-15.3533
-14.9674
-14.6078
-14.2714
-13.9555
-13.6579
-13.3767
-13.1102
-12.857
-12.6159
-12.3858
-12.1658
-11.955
-11.7529
-11.5586
-11.3717
-11.1916
-11.018
-10.8503
-10.6882
-10.5313
-10.3794
-10.2322
-10.0894
-9.95079
-9.81613
-9.68522
-9.55788
-9.43395
-9.31326
-9.19567
-9.08103
-8.96922
-8.86011
-8.7536
-8.64957
-8.54792
-8.44856
-8.3514
-8.25636
-8.16335
-8.07231
-7.98316
-7.89584
-7.81027
-7.72641
-7.64419
-7.56355
-7.48444
-7.4068
-7.33059
-7.25575
-7.18225
-7.11002
-7.03903
-6.96922
-6.90057
-6.83302
-6.76654
-6.70107
-6.63658
-6.57302
-6.51035
-6.44851
-6.38747
-6.32717
-6.26757
-6.20862
-6.15026
-6.09246
-6.03516
-5.97832
-5.92187
-5.86578
-5.80999
-5.75444
-5.6991
-5.64392
-5.58885
-5.53387
-5.47893
-5.42403
-5.36915
-5.31428
-5.25942
-5.2046
-5.14984
-5.09516
-5.0406
-4.98623
-4.93209
-4.87824
-4.82476
-4.77171
-4.71916
-4.6672
-4.61589
-4.5653
-4.51551
-4.46656
-4.41852
-4.37144
-4.32535
-4.28029
-4.23628
-4.19334
-4.15147
-4.11068
-4.07094
-4.03226
-3.9946
-3.95794
-3.92224
-3.88747
-3.85358
-3.82053
-3.78828
-3.75677
-3.72597
-3.69582
-3.66629
-3.63732
-3.60888
-3.58092
-3.55341
-3.52632
-3.4996
-3.47324
-3.44721
-3.42148
-3.39603
-3.37084
-3.34591
-3.3212
-3.29672
-3.27246
-3.2484
-3.22454
-3.20088
-3.17741
-3.15412
-3.13103
-3.10811
-3.08538
-3.06284
-3.04047
-3.01828
-2.99628
-2.97445
-2.9528
-2.93133
-2.91004
-2.88892
-2.86798
-2.8472
-2.8266
-2.80616
-2.7859
-2.76579
-2.74585
-2.72606
-2.70643
-2.68695
-2.66762
-2.64844
-2.6294
-2.6105
-2.59174
-2.57311
-2.55461
-2.53623
-2.51799
-2.49986
-2.48185
-2.46395
-2.44616
-2.42848
-2.41091
-2.39343
-2.37606
-2.35878
-2.34159
-2.3245
-2.30749
-2.29056
-2.27372
-2.25696
-2.24028
-2.22367
-2.20714
-2.19067
-2.17428
-2.15795
-2.14169
-2.1255
-2.10936
-2.09329
-2.07727
-2.06132
-2.04542
-2.02957
-2.01378
-1.99804
-1.98236
-1.96672
-1.95114
-1.9356
-1.92011
-1.90467
-1.88928
-1.87394
-1.85864
-1.84338
-1.82818
-1.81301
-1.7979
-1.78282
-1.7678
-1.75281
-1.73787
-1.72298
-1.70813
-1.69332
-1.67856
-1.66385
-1.64917
-1.63455
-1.61997
-1.60544
-1.59095
-1.57651
-1.56211
-1.54776
-1.53347
-1.51921
-1.50501
-1.49086
-1.47676
-1.4627
-1.4487
-1.43475
-1.42085
-1.407
-1.3932
-1.37946
-1.36577
-1.35214
-1.33856
-1.32503
-1.31157
-1.29815
-1.2848
-1.2715
-1.25826
-1.24508
-1.23195
-1.21889
-1.20589
-1.19294
-1.18006
-1.16723
-1.15447
-1.14177
-1.12913
-1.11655
-1.10404
-1.09159
-1.0792
-1.06687
-1.05461
-1.04241
-1.03028
-1.01821
-1.0062
-0.994264
-0.982387
-0.970576
-0.958829
-0.947147
-0.93553
-0.923978
-0.912492
-0.90107
-0.889713
-0.878421
-0.867195
-0.856033
-0.844936
-0.833903
-0.822936
-0.812032
-0.801193
-0.790418
-0.779708
-0.76906
-0.758477
-0.747957
-0.7375
-0.727106
-0.716774
-0.706505
-0.696298
-0.686153
-0.676069
-0.666046
-0.656085
-0.646183
-0.636342
-0.626561
-0.616839
-0.607177
-0.597573
-0.588027
-0.57854
-0.56911
-0.559737
-0.550421
-0.541162
-0.531958
-0.522811
-0.513718
-0.50468
-0.495696
-0.486766
-0.47789
-0.469067
-0.460296
-0.451577
-0.442911
-0.434295
-0.425731
-0.417217
-0.408753
-0.400339
-0.391973
-0.383657
-0.375389
-0.367169
-0.358997
-0.350872
-0.342794
-0.334762
-0.326776
-0.318836
-0.310941
-0.303091
-0.295286
-0.287525
-0.279808
-0.272135
-0.264505
-0.256919
-0.249375
-0.241874
-0.234416
-0.226999
-0.219625
-0.212293
-0.205003
-0.197755
-0.190549
-0.183384
-0.176261
-0.16918
-0.162141
-0.155144
-0.148189
-0.141277
-0.134408
-0.127583
-0.120802
-0.114066
-0.107376
-0.100733
-0.0941376
-0.0875918
-0.081097
-0.0746548
-0.0682673
-0.0619374
-0.0556677
-0.0494635
-0.0433209
-0.037278
-0.0311942
-0.0257083
-0.0181237
-0.0218392
-22.2019
-21.8383
-21.0513
-20.2459
-19.5238
-18.836
-18.1873
-17.5928
-17.0484
-16.5466
-16.0831
-15.6538
-15.2548
-14.8825
-14.5339
-14.2065
-13.898
-13.6066
-13.3306
-13.0686
-12.8193
-12.5815
-12.3543
-12.1369
-11.9284
-11.7282
-11.5357
-11.3504
-11.1717
-10.9994
-10.8328
-10.6718
-10.5159
-10.3649
-10.2184
-10.0764
-9.93841
-9.80437
-9.67403
-9.54722
-9.42378
-9.30355
-9.18637
-9.07213
-8.96068
-8.85192
-8.74572
-8.64199
-8.54062
-8.44152
-8.34461
-8.2498
-8.15701
-8.06618
-7.97722
-7.89007
-7.80468
-7.72097
-7.63889
-7.55839
-7.4794
-7.40188
-7.32578
-7.25104
-7.17762
-7.10547
-7.03455
-6.96481
-6.89621
-6.8287
-6.76225
-6.69682
-6.63235
-6.5688
-6.50614
-6.4443
-6.38326
-6.32295
-6.26334
-6.20438
-6.14601
-6.0882
-6.0309
-5.97405
-5.91761
-5.86154
-5.80577
-5.75028
-5.695
-5.63989
-5.58493
-5.53006
-5.47527
-5.42053
-5.36583
-5.31117
-5.25654
-5.20197
-5.14746
-5.09306
-5.0388
-4.98472
-4.93087
-4.87733
-4.82415
-4.7714
-4.71914
-4.66746
-4.61642
-4.5661
-4.51654
-4.46783
-4.42
-4.37311
-4.3272
-4.28229
-4.23842
-4.19561
-4.15384
-4.11314
-4.07348
-4.03485
-3.99724
-3.9606
-3.92492
-3.89014
-3.85624
-3.82317
-3.79089
-3.75934
-3.72849
-3.69829
-3.66869
-3.63965
-3.61113
-3.5831
-3.55551
-3.52833
-3.50154
-3.47509
-3.44897
-3.42315
-3.39762
-3.37235
-3.34733
-3.32255
-3.298
-3.27366
-3.24953
-3.2256
-3.20188
-3.17835
-3.155
-3.13185
-3.10889
-3.08611
-3.06352
-3.04111
-3.01889
-2.99685
-2.97499
-2.95331
-2.93181
-2.91049
-2.88935
-2.86838
-2.84758
-2.82696
-2.80651
-2.78623
-2.76611
-2.74615
-2.72635
-2.70671
-2.68722
-2.66788
-2.64869
-2.62964
-2.61074
-2.59197
-2.57333
-2.55483
-2.53645
-2.5182
-2.50007
-2.48205
-2.46415
-2.44636
-2.42868
-2.4111
-2.39362
-2.37625
-2.35896
-2.34178
-2.32468
-2.30767
-2.29074
-2.2739
-2.25714
-2.24045
-2.22384
-2.20731
-2.19084
-2.17445
-2.15812
-2.14186
-2.12566
-2.10952
-2.09345
-2.07743
-2.06147
-2.04557
-2.02972
-2.01393
-1.99819
-1.9825
-1.96686
-1.95127
-1.93573
-1.92024
-1.9048
-1.88941
-1.87406
-1.85876
-1.8435
-1.82829
-1.81312
-1.798
-1.78293
-1.76789
-1.75291
-1.73796
-1.72307
-1.70821
-1.6934
-1.67864
-1.66392
-1.64924
-1.63462
-1.62003
-1.60549
-1.591
-1.57656
-1.56216
-1.54781
-1.53351
-1.51925
-1.50505
-1.49089
-1.47678
-1.46272
-1.44872
-1.43476
-1.42086
-1.40701
-1.39321
-1.37946
-1.36577
-1.35213
-1.33855
-1.32503
-1.31155
-1.29814
-1.28478
-1.27148
-1.25824
-1.24505
-1.23193
-1.21886
-1.20586
-1.19291
-1.18002
-1.1672
-1.15443
-1.14173
-1.12909
-1.11651
-1.104
-1.09154
-1.07915
-1.06683
-1.05457
-1.04237
-1.03023
-1.01816
-1.00616
-0.994214
-0.982338
-0.970526
-0.958779
-0.947098
-0.935481
-0.92393
-0.912443
-0.901022
-0.889666
-0.878375
-0.867149
-0.855988
-0.844892
-0.83386
-0.822894
-0.811992
-0.801154
-0.790381
-0.779671
-0.769026
-0.758444
-0.747925
-0.73747
-0.727078
-0.716748
-0.706481
-0.696276
-0.686133
-0.676051
-0.666031
-0.656071
-0.646173
-0.636334
-0.626555
-0.616836
-0.607176
-0.597575
-0.588032
-0.578547
-0.56912
-0.55975
-0.550438
-0.541181
-0.531981
-0.522836
-0.513746
-0.504711
-0.495731
-0.486804
-0.477931
-0.469111
-0.460344
-0.451629
-0.442966
-0.434354
-0.425793
-0.417282
-0.408822
-0.400412
-0.39205
-0.383738
-0.375474
-0.367258
-0.359089
-0.350968
-0.342894
-0.334866
-0.326884
-0.318948
-0.311058
-0.303212
-0.295411
-0.287654
-0.279942
-0.272273
-0.264648
-0.257066
-0.249527
-0.24203
-0.234576
-0.227165
-0.219795
-0.212468
-0.205182
-0.197939
-0.190737
-0.183577
-0.176458
-0.169382
-0.162347
-0.155355
-0.148405
-0.141497
-0.134632
-0.127811
-0.121034
-0.114302
-0.107615
-0.100974
-0.0943812
-0.087837
-0.0813428
-0.0749001
-0.0685105
-0.0621764
-0.0558998
-0.0496846
-0.0435258
-0.0374572
-0.0313405
-0.0257854
-0.0181625
-0.0215465
-20.8015
-20.605
-20.1152
-19.5271
-18.9488
-18.3788
-17.8234
-17.2978
-16.8056
-16.3448
-15.9134
-15.5095
-15.1308
-14.7749
-14.4397
-14.1234
-13.8242
-13.5406
-13.2712
-13.0149
-12.7704
-12.5369
-12.3134
-12.0992
-11.8936
-11.696
-11.5058
-11.3225
-11.1457
-10.975
-10.8099
-10.6502
-10.4956
-10.3457
-10.2003
-10.0592
-9.92212
-9.78888
-9.65929
-9.53317
-9.41037
-9.29073
-9.17411
-9.06038
-8.94942
-8.84111
-8.73533
-8.632
-8.531
-8.43226
-8.33568
-8.24118
-8.14868
-8.05812
-7.96942
-7.88253
-7.79736
-7.71387
-7.632
-7.55169
-7.47289
-7.39554
-7.3196
-7.24502
-7.17174
-7.09973
-7.02894
-6.95932
-6.89083
-6.82343
-6.75707
-6.69173
-6.62734
-6.56387
-6.50128
-6.43952
-6.37853
-6.31829
-6.25874
-6.19983
-6.14152
-6.08377
-6.02652
-5.96974
-5.91338
-5.85738
-5.80171
-5.74631
-5.69115
-5.63617
-5.58135
-5.52664
-5.47203
-5.41749
-5.36301
-5.30858
-5.2542
-5.19989
-5.14566
-5.09155
-5.03758
-4.9838
-4.93027
-4.87703
-4.82415
-4.77169
-4.71972
-4.66832
-4.61754
-4.56745
-4.51813
-4.46962
-4.42198
-4.37526
-4.3295
-4.28472
-4.24096
-4.19823
-4.15654
-4.11589
-4.07627
-4.03766
-4.00005
-3.9634
-3.92769
-3.89288
-3.85894
-3.82581
-3.79346
-3.76184
-3.73091
-3.70062
-3.67093
-3.6418
-3.61319
-3.58506
-3.55737
-3.5301
-3.5032
-3.47666
-3.45045
-3.42454
-3.39891
-3.37356
-3.34846
-3.3236
-3.29896
-3.27455
-3.25036
-3.22637
-3.20258
-3.17899
-3.1556
-3.1324
-3.10939
-3.08658
-3.06395
-3.0415
-3.01925
-2.99718
-2.97529
-2.95359
-2.93207
-2.91073
-2.88957
-2.86859
-2.84778
-2.82715
-2.80668
-2.78639
-2.76626
-2.7463
-2.72649
-2.70685
-2.68735
-2.66801
-2.64882
-2.62977
-2.61086
-2.59209
-2.57345
-2.55494
-2.53657
-2.51831
-2.50018
-2.48216
-2.46426
-2.44647
-2.42879
-2.41121
-2.39374
-2.37636
-2.35908
-2.34189
-2.32479
-2.30778
-2.29086
-2.27401
-2.25725
-2.24057
-2.22396
-2.20742
-2.19096
-2.17456
-2.15823
-2.14197
-2.12577
-2.10963
-2.09356
-2.07754
-2.06158
-2.04568
-2.02983
-2.01403
-1.99829
-1.9826
-1.96696
-1.95137
-1.93583
-1.92034
-1.9049
-1.8895
-1.87415
-1.85884
-1.84358
-1.82837
-1.8132
-1.79808
-1.783
-1.76796
-1.75297
-1.73802
-1.72312
-1.70827
-1.69345
-1.67868
-1.66396
-1.64928
-1.63465
-1.62006
-1.60552
-1.59102
-1.57657
-1.56217
-1.54782
-1.53351
-1.51925
-1.50504
-1.49088
-1.47677
-1.46271
-1.4487
-1.43474
-1.42083
-1.40698
-1.39317
-1.37942
-1.36573
-1.35209
-1.3385
-1.32497
-1.3115
-1.29808
-1.28472
-1.27141
-1.25817
-1.24498
-1.23185
-1.21878
-1.20577
-1.19283
-1.17994
-1.16711
-1.15434
-1.14164
-1.129
-1.11642
-1.1039
-1.09145
-1.07905
-1.06673
-1.05446
-1.04226
-1.03013
-1.01806
-1.00605
-0.99411
-0.982233
-0.970421
-0.958674
-0.946993
-0.935376
-0.923825
-0.912339
-0.900918
-0.889563
-0.878273
-0.867048
-0.855888
-0.844793
-0.833763
-0.822797
-0.811896
-0.80106
-0.790288
-0.779581
-0.768937
-0.758357
-0.74784
-0.737387
-0.726997
-0.71667
-0.706405
-0.696202
-0.686061
-0.675982
-0.665965
-0.656008
-0.646112
-0.636276
-0.6265
-0.616784
-0.607127
-0.597529
-0.587989
-0.578508
-0.569084
-0.559718
-0.550408
-0.541155
-0.531958
-0.522817
-0.513731
-0.5047
-0.495723
-0.4868
-0.477931
-0.469115
-0.460352
-0.451641
-0.442981
-0.434374
-0.425817
-0.417311
-0.408855
-0.400448
-0.392091
-0.383783
-0.375524
-0.367312
-0.359148
-0.351032
-0.342962
-0.334939
-0.326962
-0.319031
-0.311145
-0.303304
-0.295508
-0.287756
-0.280049
-0.272385
-0.264764
-0.257187
-0.249653
-0.242162
-0.234713
-0.227307
-0.219942
-0.21262
-0.20534
-0.198101
-0.190904
-0.183749
-0.176636
-0.169564
-0.162535
-0.155547
-0.148601
-0.141698
-0.134838
-0.128021
-0.121247
-0.114518
-0.107834
-0.101196
-0.0946052
-0.0880618
-0.0815674
-0.075123
-0.0687301
-0.0623901
-0.0561046
-0.0498763
-0.0436989
-0.0376033
-0.0314516
-0.0258368
-0.0181786
-0.0213005
-19.7109
-19.5948
-19.2731
-18.8385
-18.3765
-17.9056
-17.4339
-16.9744
-16.5344
-16.1154
-15.7179
-15.3413
-14.9849
-14.6474
-14.3275
-14.0239
-13.7355
-13.461
-13.1994
-12.9497
-12.7111
-12.4826
-12.2636
-12.0533
-11.8512
-11.6566
-11.4692
-11.2884
-11.1138
-10.9451
-10.7818
-10.6238
-10.4706
-10.3221
-10.178
-10.038
-9.90204
-9.76978
-9.64111
-9.51584
-9.39382
-9.27491
-9.15898
-9.04588
-8.93552
-8.82776
-8.72251
-8.61966
-8.51913
-8.42082
-8.32465
-8.23053
-8.13841
-8.04819
-7.95982
-7.87323
-7.78836
-7.70515
-7.62354
-7.54349
-7.46492
-7.3878
-7.31208
-7.2377
-7.16463
-7.0928
-7.02219
-6.95274
-6.88442
-6.81718
-6.75097
-6.68577
-6.62152
-6.55819
-6.49572
-6.43408
-6.37322
-6.3131
-6.25366
-6.19487
-6.13668
-6.07905
-6.02192
-5.96527
-5.90903
-5.85317
-5.79764
-5.74239
-5.68738
-5.63258
-5.57794
-5.52343
-5.46903
-5.41472
-5.36048
-5.30631
-5.2522
-5.19818
-5.14424
-5.09043
-5.03677
-4.9833
-4.93008
-4.87715
-4.82457
-4.77241
-4.72073
-4.66959
-4.61906
-4.56921
-4.5201
-4.47179
-4.42432
-4.37775
-4.33211
-4.28745
-4.24377
-4.2011
-4.15945
-4.11882
-4.0792
-4.04058
-4.00294
-3.96625
-3.93049
-3.89561
-3.86159
-3.82838
-3.79593
-3.76421
-3.73318
-3.70278
-3.67298
-3.64374
-3.61501
-3.58677
-3.55897
-3.53158
-3.50457
-3.47793
-3.45161
-3.4256
-3.39989
-3.37444
-3.34926
-3.32432
-3.29961
-3.27513
-3.25087
-3.22682
-3.20298
-3.17935
-3.15591
-3.13267
-3.10962
-3.08677
-3.06411
-3.04164
-3.01936
-2.99727
-2.97537
-2.95365
-2.93211
-2.91076
-2.88959
-2.8686
-2.84779
-2.82715
-2.80668
-2.78638
-2.76625
-2.74628
-2.72648
-2.70683
-2.68734
-2.66799
-2.6488
-2.62975
-2.61085
-2.59208
-2.57344
-2.55494
-2.53656
-2.51831
-2.50018
-2.48217
-2.46427
-2.44649
-2.42881
-2.41123
-2.39376
-2.37639
-2.35911
-2.34192
-2.32483
-2.30782
-2.2909
-2.27406
-2.2573
-2.24061
-2.22401
-2.20747
-2.19101
-2.17462
-2.15829
-2.14203
-2.12583
-2.10969
-2.09362
-2.0776
-2.06164
-2.04574
-2.02989
-2.01409
-1.99835
-1.98266
-1.96702
-1.95143
-1.93589
-1.92039
-1.90494
-1.88955
-1.87419
-1.85888
-1.84362
-1.82841
-1.81323
-1.79811
-1.78302
-1.76799
-1.75299
-1.73804
-1.72314
-1.70827
-1.69346
-1.67868
-1.66396
-1.64927
-1.63464
-1.62004
-1.6055
-1.591
-1.57654
-1.56214
-1.54778
-1.53347
-1.5192
-1.50499
-1.49082
-1.47671
-1.46264
-1.44862
-1.43466
-1.42075
-1.40689
-1.39308
-1.37933
-1.36563
-1.35198
-1.33839
-1.32486
-1.31138
-1.29796
-1.28459
-1.27129
-1.25804
-1.24485
-1.23172
-1.21864
-1.20563
-1.19268
-1.17979
-1.16696
-1.15419
-1.14148
-1.12884
-1.11626
-1.10374
-1.09128
-1.07889
-1.06656
-1.0543
-1.0421
-1.02996
-1.01789
-1.00588
-0.993939
-0.982062
-0.970249
-0.958503
-0.946821
-0.935205
-0.923654
-0.912168
-0.900748
-0.889393
-0.878104
-0.86688
-0.855721
-0.844627
-0.833598
-0.822634
-0.811735
-0.8009
-0.79013
-0.779425
-0.768783
-0.758205
-0.747691
-0.73724
-0.726852
-0.716527
-0.706265
-0.696065
-0.685927
-0.675851
-0.665836
-0.655882
-0.645989
-0.636157
-0.626384
-0.616672
-0.607018
-0.597424
-0.587888
-0.57841
-0.56899
-0.559627
-0.550321
-0.541072
-0.531879
-0.522742
-0.51366
-0.504633
-0.495661
-0.486743
-0.477878
-0.469066
-0.460307
-0.451601
-0.442946
-0.434343
-0.425791
-0.41729
-0.408839
-0.400437
-0.392085
-0.383782
-0.375527
-0.367321
-0.359162
-0.351051
-0.342986
-0.334968
-0.326997
-0.319071
-0.31119
-0.303355
-0.295564
-0.287818
-0.280116
-0.272457
-0.264842
-0.257271
-0.249742
-0.242257
-0.234813
-0.227413
-0.220054
-0.212737
-0.205462
-0.198229
-0.191038
-0.183888
-0.17678
-0.169714
-0.162689
-0.155707
-0.148766
-0.141868
-0.135012
-0.128199
-0.121429
-0.114703
-0.108022
-0.101386
-0.0947964
-0.0882534
-0.0817581
-0.0753113
-0.068914
-0.0625673
-0.0562719
-0.0500298
-0.0438336
-0.0377123
-0.031529
-0.0258651
-0.0181795
-0.0210992
-18.8196
-18.7424
-18.5172
-18.1904
-17.8221
-17.4335
-17.034
-16.6348
-16.2443
-15.8663
-15.5026
-15.1542
-14.8212
-14.5032
-14.1997
-13.91
-13.6333
-13.369
-13.1161
-12.874
-12.642
-12.4193
-12.2054
-11.9996
-11.8014
-11.6104
-11.4262
-11.2482
-11.0762
-10.9098
-10.7487
-10.5926
-10.4412
-10.2943
-10.1516
-10.013
-9.87827
-9.74718
-9.61957
-9.4953
-9.37421
-9.25616
-9.14103
-9.02868
-8.91902
-8.81192
-8.70728
-8.60502
-8.50503
-8.40724
-8.31155
-8.21789
-8.1262
-8.03639
-7.94841
-7.86219
-7.77767
-7.6948
-7.61351
-7.53376
-7.45549
-7.37865
-7.30319
-7.22907
-7.15624
-7.08465
-7.01427
-6.94504
-6.87693
-6.80989
-6.74389
-6.67888
-6.61482
-6.55167
-6.48939
-6.42792
-6.36724
-6.30728
-6.24802
-6.1894
-6.13139
-6.07393
-6.01698
-5.9605
-5.90445
-5.84877
-5.79343
-5.73838
-5.68358
-5.62898
-5.57457
-5.5203
-5.46614
-5.41209
-5.35811
-5.30422
-5.25041
-5.19668
-5.14305
-5.08956
-5.03621
-4.98307
-4.93016
-4.87755
-4.82527
-4.77341
-4.72201
-4.67114
-4.62086
-4.57124
-4.52233
-4.4742
-4.42689
-4.38045
-4.33493
-4.29034
-4.24673
-4.2041
-4.16247
-4.12184
-4.0822
-4.04354
-4.00584
-3.96908
-3.93324
-3.89827
-3.86414
-3.83081
-3.79825
-3.76641
-3.73525
-3.70472
-3.67479
-3.64542
-3.61657
-3.58819
-3.56027
-3.53276
-3.50564
-3.47888
-3.45246
-3.42636
-3.40054
-3.37501
-3.34974
-3.32473
-3.29995
-3.27541
-3.25109
-3.22699
-3.2031
-3.17941
-3.15594
-3.13266
-3.10959
-3.08671
-3.06402
-3.04154
-3.01924
-2.99713
-2.97522
-2.95349
-2.93195
-2.91059
-2.88942
-2.86842
-2.84761
-2.82697
-2.8065
-2.78621
-2.76608
-2.74611
-2.72631
-2.70667
-2.68718
-2.66784
-2.64866
-2.62961
-2.61071
-2.59195
-2.57332
-2.55483
-2.53646
-2.51821
-2.50009
-2.48208
-2.46419
-2.44641
-2.42874
-2.41117
-2.3937
-2.37633
-2.35906
-2.34188
-2.32479
-2.30779
-2.29087
-2.27404
-2.25728
-2.2406
-2.224
-2.20747
-2.19101
-2.17462
-2.15829
-2.14203
-2.12584
-2.1097
-2.09363
-2.07761
-2.06166
-2.04575
-2.02991
-2.01411
-1.99837
-1.98268
-1.96704
-1.95144
-1.9359
-1.92041
-1.90496
-1.88956
-1.8742
-1.85889
-1.84363
-1.82841
-1.81323
-1.7981
-1.78302
-1.76798
-1.75298
-1.73802
-1.72311
-1.70825
-1.69343
-1.67865
-1.66392
-1.64923
-1.63459
-1.61999
-1.60544
-1.59093
-1.57648
-1.56206
-1.5477
-1.53338
-1.51911
-1.50489
-1.49072
-1.4766
-1.46253
-1.44851
-1.43454
-1.42062
-1.40676
-1.39295
-1.37919
-1.36548
-1.35183
-1.33824
-1.3247
-1.31122
-1.29779
-1.28442
-1.27111
-1.25786
-1.24466
-1.23153
-1.21845
-1.20544
-1.19248
-1.17959
-1.16675
-1.15398
-1.14127
-1.12863
-1.11604
-1.10352
-1.09106
-1.07867
-1.06634
-1.05407
-1.04187
-1.02973
-1.01766
-1.00565
-0.993709
-0.981832
-0.970019
-0.958272
-0.94659
-0.934974
-0.923423
-0.911938
-0.900519
-0.889165
-0.877876
-0.866653
-0.855495
-0.844403
-0.833375
-0.822413
-0.811515
-0.800683
-0.789915
-0.779211
-0.768571
-0.757996
-0.747484
-0.737036
-0.726651
-0.716329
-0.706069
-0.695873
-0.685738
-0.675665
-0.665653
-0.655703
-0.645814
-0.635985
-0.626216
-0.616507
-0.606857
-0.597267
-0.587735
-0.578261
-0.568846
-0.559487
-0.550186
-0.540941
-0.531753
-0.52262
-0.513543
-0.504521
-0.495553
-0.48664
-0.47778
-0.468973
-0.460219
-0.451518
-0.442869
-0.434271
-0.425724
-0.417228
-0.408782
-0.400386
-0.39204
-0.383742
-0.375493
-0.367292
-0.359139
-0.351033
-0.342975
-0.334962
-0.326997
-0.319076
-0.311202
-0.303372
-0.295588
-0.287847
-0.280151
-0.272499
-0.26489
-0.257325
-0.249802
-0.242323
-0.234886
-0.227491
-0.220138
-0.212827
-0.205559
-0.198332
-0.191146
-0.184002
-0.1769
-0.169839
-0.16282
-0.155843
-0.148907
-0.142014
-0.135162
-0.128353
-0.121588
-0.114865
-0.108187
-0.101553
-0.0949639
-0.088421
-0.0819244
-0.0754749
-0.0690729
-0.0627191
-0.0564138
-0.0501582
-0.0439444
-0.0378002
-0.0315893
-0.0258862
-0.0181806
-0.020943
-18.063
-18.0072
-17.8415
-17.5906
-17.2948
-16.9727
-16.6337
-16.2877
-15.9427
-15.6035
-15.2727
-14.9521
-14.6427
-14.3448
-14.0584
-13.7834
-13.5194
-13.2659
-13.0225
-12.7886
-12.5638
-12.3475
-12.1392
-11.9384
-11.7447
-11.5577
-11.377
-11.2023
-11.0332
-10.8694
-10.7107
-10.5567
-10.4074
-10.2623
-10.1213
-9.98425
-9.85091
-9.72113
-9.59475
-9.47161
-9.35158
-9.23452
-9.1203
-9.00882
-8.89996
-8.79361
-8.68968
-8.58809
-8.48872
-8.39152
-8.29639
-8.20326
-8.11206
-8.02273
-7.9352
-7.8494
-7.76529
-7.6828
-7.60188
-7.52248
-7.44454
-7.36803
-7.29288
-7.21906
-7.14652
-7.07522
-7.0051
-6.93614
-6.86828
-6.8015
-6.73574
-6.67097
-6.60714
-6.54422
-6.48216
-6.42092
-6.36046
-6.30073
-6.24169
-6.1833
-6.1255
-6.06827
-6.01155
-5.9553
-5.89947
-5.84403
-5.78893
-5.73412
-5.67956
-5.62522
-5.57106
-5.51706
-5.46318
-5.40941
-5.35573
-5.30214
-5.24863
-5.19522
-5.14192
-5.08875
-5.03574
-4.98292
-4.93034
-4.87804
-4.82608
-4.77451
-4.72339
-4.67278
-4.62275
-4.57336
-4.52465
-4.47669
-4.42954
-4.38322
-4.33779
-4.29328
-4.24971
-4.20711
-4.16548
-4.12482
-4.08514
-4.04642
-4.00865
-3.9718
-3.93585
-3.90076
-3.86651
-3.83306
-3.80036
-3.76838
-3.73707
-3.70641
-3.67633
-3.64682
-3.61783
-3.58932
-3.56127
-3.53363
-3.50639
-3.47952
-3.45299
-3.42678
-3.40088
-3.37526
-3.34991
-3.32482
-3.29998
-3.27538
-3.251
-3.22685
-3.20292
-3.1792
-3.15569
-3.13239
-3.10929
-3.08639
-3.06369
-3.04119
-3.01888
-2.99677
-2.97485
-2.95312
-2.93158
-2.91022
-2.88905
-2.86806
-2.84725
-2.82662
-2.80616
-2.78587
-2.76575
-2.74579
-2.726
-2.70636
-2.68688
-2.66756
-2.64838
-2.62935
-2.61046
-2.5917
-2.57309
-2.5546
-2.53624
-2.518
-2.49989
-2.48189
-2.46401
-2.44624
-2.42858
-2.41102
-2.39356
-2.3762
-2.35893
-2.34176
-2.32468
-2.30769
-2.29077
-2.27395
-2.2572
-2.24052
-2.22393
-2.2074
-2.19095
-2.17456
-2.15824
-2.14199
-2.12579
-2.10966
-2.09359
-2.07758
-2.06162
-2.04572
-2.02988
-2.01408
-1.99834
-1.98265
-1.96701
-1.95142
-1.93587
-1.92038
-1.90493
-1.88953
-1.87417
-1.85886
-1.84359
-1.82837
-1.81319
-1.79806
-1.78297
-1.76792
-1.75292
-1.73797
-1.72305
-1.70818
-1.69336
-1.67857
-1.66384
-1.64914
-1.6345
-1.61989
-1.60534
-1.59083
-1.57636
-1.56194
-1.54757
-1.53325
-1.51898
-1.50475
-1.49057
-1.47645
-1.46237
-1.44834
-1.43437
-1.42045
-1.40658
-1.39276
-1.37899
-1.36528
-1.35163
-1.33803
-1.32448
-1.311
-1.29757
-1.28419
-1.27088
-1.25762
-1.24442
-1.23128
-1.2182
-1.20518
-1.19222
-1.17933
-1.16649
-1.15371
-1.141
-1.12835
-1.11577
-1.10324
-1.09078
-1.07839
-1.06605
-1.05378
-1.04158
-1.02944
-1.01737
-1.00536
-0.993415
-0.981537
-0.969724
-0.957977
-0.946295
-0.934679
-0.923128
-0.911644
-0.900225
-0.888871
-0.877584
-0.866362
-0.855205
-0.844114
-0.833088
-0.822128
-0.811232
-0.800401
-0.789636
-0.778934
-0.768297
-0.757724
-0.747215
-0.73677
-0.726388
-0.716069
-0.705813
-0.695619
-0.685488
-0.675419
-0.665411
-0.655464
-0.645579
-0.635754
-0.625989
-0.616285
-0.606639
-0.597053
-0.587526
-0.578057
-0.568646
-0.559292
-0.549996
-0.540756
-0.531573
-0.522445
-0.513373
-0.504356
-0.495394
-0.486486
-0.477631
-0.46883
-0.460082
-0.451386
-0.442743
-0.43415
-0.42561
-0.417119
-0.408679
-0.400289
-0.391949
-0.383657
-0.375415
-0.36722
-0.359073
-0.350974
-0.342921
-0.334916
-0.326956
-0.319042
-0.311174
-0.303351
-0.295573
-0.287839
-0.28015
-0.272504
-0.264902