/*--------------------------------*- C++ -*----------------------------------*\
| =========                 |                                                 |
| \\      /  F ield         | OpenFOAM: The Open Source CFD Toolbox           |
|  \\    /   O peration     | Version:  2506                                  |
|   \\  /    A nd           | Website:  www.openfoam.com                      |
|    \\/     M anipulation  |                                                 |
\*---------------------------------------------------------------------------*/
FoamFile
{
    version     2.0;
    format      ascii;
    arch        "LSB;label=32;scalar=64";
    class       surfaceScalarField;
    location    "100";
    object      phi;
}
// * * * * * * * * * * * * * * * * * * * * * * * * * * * * * * * * * * * * * //

dimensions      [0 3 -1 0 0 0 0];

oriented        oriented;

internalField   nonuniform List<scalar> 
266147
(
0.00237347
0.00011701
0.0023151
5.83623e-05
0.00227865
3.64369e-05
0.00225492
2.37113e-05
0.00223813
1.67872e-05
0.0022249
1.32104e-05
0.0022139
1.09921e-05
0.00220448
9.4079e-06
0.00219623
8.23853e-06
0.00218887
7.34419e-06
0.00218223
6.63089e-06
0.00217617
6.04646e-06
0.0021706
5.55884e-06
0.00216544
5.14517e-06
0.00216064
4.78907e-06
0.00215615
4.47869e-06
0.00215193
4.20529e-06
0.00214795
3.96216e-06
0.0021442
3.74416e-06
0.00214064
3.54729e-06
0.00213725
3.3684e-06
0.00213404
3.20496e-06
0.00213097
3.055e-06
0.00212804
2.9169e-06
0.00212524
2.78936e-06
0.00212255
2.67128e-06
0.00211998
2.56175e-06
0.0021175
2.45995e-06
0.00211512
2.36515e-06
0.00211283
2.27667e-06
0.00211063
2.19391e-06
0.0021085
2.11626e-06
0.00210644
2.04319e-06
0.00210445
1.97416e-06
0.00210253
1.90873e-06
0.00210067
1.8464e-06
0.00209887
1.78682e-06
0.00209713
1.72958e-06
0.00209544
1.6744e-06
0.00209381
1.62099e-06
0.00209223
1.56914e-06
0.0020907
1.51864e-06
0.00208922
1.46936e-06
0.00208778
1.42112e-06
0.0020864
1.37386e-06
0.00208506
1.32742e-06
0.00208376
1.28172e-06
0.00208252
1.23661e-06
0.00208131
1.192e-06
0.00208015
1.1477e-06
0.00207904
1.10361e-06
0.00207797
1.05951e-06
0.00207694
1.01524e-06
0.00207596
9.70544e-07
0.00207502
9.25258e-07
0.00207413
8.79092e-07
0.00207329
8.31847e-07
0.0020725
7.83218e-07
0.00207175
7.32992e-07
0.00207106
6.80845e-07
0.00207043
6.26555e-07
0.00206985
5.69786e-07
0.00206933
5.10303e-07
0.00206887
4.47758e-07
0.00206848
3.81905e-07
0.00206816
3.12382e-07
0.00206791
2.38927e-07
0.00206774
1.61165e-07
0.00206765
7.88229e-08
0.00206765
-8.48748e-09
0.00206774
-1.01042e-07
0.00206793
-1.99239e-07
0.00206823
-3.03351e-07
0.00206864
-4.1377e-07
0.00206916
-5.30747e-07
0.00206981
-6.54645e-07
0.00207059
-7.85659e-07
0.00207151
-9.24082e-07
0.00207257
-1.07001e-06
0.00207379
-1.22361e-06
0.00207517
-1.38483e-06
0.00207672
-1.55366e-06
0.00207844
-1.72983e-06
0.00208035
-1.91312e-06
0.00208245
-2.103e-06
0.00208474
-2.29898e-06
0.00208724
-2.50028e-06
0.00208994
-2.70613e-06
0.00209286
-2.91545e-06
0.00209598
-3.12722e-06
0.00209932
-3.34013e-06
0.00210287
-3.55292e-06
0.00210663
-3.7641e-06
0.0021106
-3.97228e-06
0.00211477
-4.17586e-06
0.00211914
-4.37343e-06
0.00212371
-4.56342e-06
0.00212845
-4.74448e-06
0.00213336
-4.91519e-06
0.00213843
-5.07438e-06
0.00214365
-5.22088e-06
0.002149
-5.35378e-06
0.00215447
-5.47224e-06
0.00216005
-5.57567e-06
0.00216571
-5.66358e-06
0.00217145
-5.73572e-06
0.00217724
-5.79196e-06
0.00218307
-5.83237e-06
0.00218892
-5.85715e-06
0.00219479
-5.86666e-06
0.00220065
-5.86136e-06
0.00220649
-5.84187e-06
0.0022123
-5.80885e-06
0.00221806
-5.76309e-06
0.00222376
-5.7054e-06
0.0022294
-5.6367e-06
0.00223496
-5.55788e-06
0.00224043
-5.4699e-06
0.0022458
-5.3737e-06
0.00225107
-5.27026e-06
0.00225623
-5.1605e-06
0.00226127
-5.04537e-06
0.00226619
-4.92576e-06
0.002271
-4.80254e-06
0.00227567
-4.67653e-06
0.00228022
-4.54853e-06
0.00228464
-4.41926e-06
0.00228892
-4.28943e-06
0.00229308
-4.15964e-06
0.00229711
-4.03052e-06
0.00230101
-3.90254e-06
0.00230479
-3.77622e-06
0.00230844
-3.65193e-06
0.00231197
-3.53008e-06
0.00231538
-3.41093e-06
0.00231867
-3.29478e-06
0.00232185
-3.18181e-06
0.00232492
-3.07221e-06
0.00232789
-2.96609e-06
0.00233075
-2.86355e-06
0.00233351
-2.76463e-06
0.00233618
-2.66936e-06
0.00233876
-2.57772e-06
0.00234124
-2.4897e-06
0.00234365
-2.4052e-06
0.00234597
-2.32421e-06
0.00234822
-2.24659e-06
0.00235039
-2.17228e-06
0.00235249
-2.10114e-06
0.00235452
-2.03309e-06
0.00235648
-1.96796e-06
0.00235839
-1.90568e-06
0.00236023
-1.84607e-06
0.00236202
-1.78906e-06
0.00236376
-1.73448e-06
0.00236544
-1.68225e-06
0.00236707
-1.6322e-06
0.00236865
-1.58427e-06
0.00237019
-1.53829e-06
0.00237168
-1.49421e-06
0.00237313
-1.45187e-06
0.00237454
-1.41123e-06
0.00237591
-1.37214e-06
0.00237725
-1.33457e-06
0.00237855
-1.29838e-06
0.00237981
-1.26354e-06
0.00238104
-1.22993e-06
0.00238223
-1.19752e-06
0.0023834
-1.16622e-06
0.00238453
-1.13599e-06
0.00238564
-1.10674e-06
0.00238672
-1.07846e-06
0.00238777
-1.05105e-06
0.00238879
-1.02451e-06
0.00238979
-9.98757e-07
0.00239076
-9.7378e-07
0.00239171
-9.49513e-07
0.00239264
-9.25947e-07
0.00239354
-9.03022e-07
0.00239442
-8.80733e-07
0.00239528
-8.59023e-07
0.00239612
-8.37891e-07
0.00239693
-8.17286e-07
0.00239773
-7.97208e-07
0.00239851
-7.77611e-07
0.00239926
-7.58496e-07
0.0024
-7.3982e-07
0.00240072
-7.21589e-07
0.00240143
-7.03761e-07
0.00240211
-6.86343e-07
0.00240278
-6.69296e-07
0.00240343
-6.52629e-07
0.00240407
-6.36306e-07
0.00240469
-6.20337e-07
0.00240529
-6.04687e-07
0.00240588
-5.89366e-07
0.00240646
-5.74343e-07
0.00240701
-5.5963e-07
0.00240756
-5.45194e-07
0.00240809
-5.31049e-07
0.00240861
-5.17164e-07
0.00240911
-5.03554e-07
0.0024096
-4.9019e-07
0.00241007
-4.77085e-07
0.00241054
-4.64212e-07
0.00241099
-4.51585e-07
0.00241143
-4.39177e-07
0.00241185
-4.27004e-07
0.00241227
-4.15039e-07
0.00241267
-4.03298e-07
0.00241306
-3.91755e-07
0.00241344
-3.80426e-07
0.00241381
-3.69286e-07
0.00241417
-3.58351e-07
0.00241452
-3.47597e-07
0.00241485
-3.3704e-07
0.00241518
-3.26656e-07
0.00241549
-3.16461e-07
0.0024158
-3.06433e-07
0.0024161
-2.96586e-07
0.00241638
-2.869e-07
0.00241666
-2.7739e-07
0.00241693
-2.68034e-07
0.00241719
-2.58847e-07
0.00241743
-2.4981e-07
0.00241767
-2.40936e-07
0.00241791
-2.32205e-07
0.00241813
-2.23633e-07
0.00241834
-2.152e-07
0.00241855
-2.0692e-07
0.00241875
-1.98774e-07
0.00241894
-1.90776e-07
0.00241912
-1.82907e-07
0.0024193
-1.75182e-07
0.00241946
-1.67581e-07
0.00241962
-1.60119e-07
0.00241978
-1.52777e-07
0.00241992
-1.45568e-07
0.00242006
-1.38475e-07
0.00242019
-1.31511e-07
0.00242031
-1.24657e-07
0.00242043
-1.17927e-07
0.00242054
-1.11303e-07
0.00242065
-1.04797e-07
0.00242075
-9.83925e-08
0.00242084
-9.21009e-08
0.00242092
-8.59057e-08
0.002421
-7.9818e-08
0.00242108
-7.38214e-08
0.00242114
-6.79268e-08
0.0024212
-6.2118e-08
0.00242126
-5.64055e-08
0.00242131
-5.07734e-08
0.00242136
-4.52318e-08
0.0024214
-3.97652e-08
0.00242143
-3.43831e-08
0.00242146
-2.90705e-08
0.00242148
-2.38365e-08
0.0024215
-1.86663e-08
0.00242151
-1.35689e-08
0.00242152
-8.52957e-09
0.00242153
-3.55712e-09
0.00242152
1.36267e-09
0.00242152
6.2214e-09
0.00242151
1.10328e-08
0.00242149
1.57889e-08
0.00242147
2.0503e-08
0.00242144
2.51673e-08
0.00242141
2.97949e-08
0.00242138
3.43785e-08
0.00242134
3.89308e-08
0.0024213
4.34448e-08
0.00242125
4.79329e-08
0.0024212
5.23883e-08
0.00242114
5.68231e-08
0.00242108
6.12308e-08
0.00242101
6.56233e-08
0.00242094
6.99942e-08
0.00242087
7.43549e-08
0.00242079
7.86994e-08
0.0024207
8.30388e-08
0.00242062
8.73672e-08
0.00242053
9.16952e-08
0.00242043
9.60173e-08
0.00242033
1.00344e-07
0.00242022
1.04669e-07
0.00242011
1.09004e-07
0.00242
1.13342e-07
0.00241988
1.17693e-07
0.00241976
1.22053e-07
0.00241963
1.2643e-07
0.0024195
1.3082e-07
0.00241937
1.35231e-07
0.00241923
1.3966e-07
0.00241908
1.44114e-07
0.00241894
1.48589e-07
0.00241878
1.53093e-07
0.00241863
1.57623e-07
0.00241846
1.62186e-07
0.0024183
1.66778e-07
0.00241812
1.71406e-07
0.00241795
1.76067e-07
0.00241777
1.80769e-07
0.00241758
1.85506e-07
0.00241739
1.90287e-07
0.0024172
1.95109e-07
0.002417
1.99976e-07
0.00241679
2.04887e-07
0.00241658
2.09848e-07
0.00241637
2.14855e-07
0.00241615
2.19915e-07
0.00241592
2.25026e-07
0.00241569
2.30191e-07
0.00241546
2.3541e-07
0.00241521
2.40688e-07
0.00241497
2.46022e-07
0.00241472
2.51417e-07
0.00241446
2.56871e-07
0.0024142
2.62389e-07
0.00241393
2.6797e-07
0.00241366
2.73618e-07
0.00241338
2.7933e-07
0.00241309
2.85112e-07
0.0024128
2.90963e-07
0.0024125
2.96885e-07
0.0024122
3.02878e-07
0.00241189
3.08946e-07
0.00241158
3.15088e-07
0.00241126
3.21306e-07
0.00241093
3.27602e-07
0.00241059
3.33978e-07
0.00241025
3.40433e-07
0.00240991
3.4697e-07
0.00240955
3.5359e-07
0.00240919
3.60295e-07
0.00240883
3.67086e-07
0.00240845
3.73964e-07
0.00240807
3.80931e-07
0.00240768
3.87988e-07
0.00240729
3.95136e-07
0.00240688
4.02378e-07
0.00240647
4.09714e-07
0.00240606
4.17146e-07
0.00240563
4.24676e-07
0.0024052
4.32304e-07
0.00240476
4.40033e-07
0.00240431
4.47865e-07
0.00240386
4.558e-07
0.00240339
4.6384e-07
0.00240292
4.71988e-07
0.00240244
4.80244e-07
0.00240195
4.88611e-07
0.00240146
4.97089e-07
0.00240095
5.05682e-07
0.00240044
5.1439e-07
0.00239991
5.23216e-07
0.00239938
5.32161e-07
0.00239884
5.41228e-07
0.00239829
5.50418e-07
0.00239773
5.59733e-07
0.00239716
5.69176e-07
0.00239658
5.78748e-07
0.00239599
5.88451e-07
0.00239539
5.98288e-07
0.00239479
6.0826e-07
0.00239417
6.18371e-07
0.00239354
6.28621e-07
0.0023929
6.39015e-07
0.00239225
6.49553e-07
0.00239159
6.60238e-07
0.00239092
6.71073e-07
0.00239024
6.82061e-07
0.00238954
6.93202e-07
0.00238884
7.04501e-07
0.00238812
7.15959e-07
0.0023874
7.27579e-07
0.00238666
7.39363e-07
0.0023859
7.51314e-07
0.00238514
7.63433e-07
0.00238437
7.75724e-07
0.00238358
7.88187e-07
0.00238278
8.00825e-07
0.00238196
8.13639e-07
0.00238114
8.2663e-07
0.0023803
8.39798e-07
0.00237944
8.53146e-07
0.00237858
8.66669e-07
0.0023777
8.80368e-07
0.0023768
8.94237e-07
0.00237589
9.08271e-07
0.00237497
9.22457e-07
0.00237403
9.36784e-07
0.00237308
9.5123e-07
0.00237212
9.65761e-07
0.00237114
9.8036e-07
0.00237014
9.94836e-07
0.00236913
1.00958e-06
0.00236811
1.02258e-06
0.00236707
1.04096e-06
1.03825e-06
0.00243698
0.000170507
0.00238643
0.000108897
0.00234547
7.7376e-05
0.00231241
5.67535e-05
0.00228644
4.27359e-05
0.00226592
3.37129e-05
0.00224926
2.76267e-05
0.00223542
2.32347e-05
0.00222366
1.99738e-05
0.00221349
1.74969e-05
0.00220454
1.55588e-05
0.00219657
1.40024e-05
0.00218938
1.27275e-05
0.00218284
1.1665e-05
0.00217684
1.07654e-05
0.0021713
9.99339e-06
0.00216617
9.32273e-06
0.00216137
8.7339e-06
0.00215688
8.21198e-06
0.00215266
7.74549e-06
0.00214869
7.32547e-06
0.00214492
6.9449e-06
0.00214136
6.5982e-06
0.00213797
6.28094e-06
0.00213475
5.98953e-06
0.00213168
5.72103e-06
0.00212875
5.47299e-06
0.00212594
5.24334e-06
0.00212326
5.03025e-06
0.00212068
4.8321e-06
0.00211821
4.64741e-06
0.00211583
4.47484e-06
0.00211353
4.31311e-06
0.00211133
4.16106e-06
0.0021092
4.01756e-06
0.00210714
3.88163e-06
0.00210515
3.75231e-06
0.00210323
3.62878e-06
0.00210138
3.51028e-06
0.00209958
3.39618e-06
0.00209784
3.2859e-06
0.00209616
3.17899e-06
0.00209454
3.07503e-06
0.00209296
2.97371e-06
0.00209144
2.87471e-06
0.00208997
2.77779e-06
0.00208855
2.68271e-06
0.00208718
2.58923e-06
0.00208586
2.4971e-06
0.00208458
2.40606e-06
0.00208335
2.3158e-06
0.00208216
2.22603e-06
0.00208102
2.13637e-06
0.00207993
2.04644e-06
0.00207888
1.95582e-06
0.00207788
1.86409e-06
0.00207692
1.77074e-06
0.00207601
1.67534e-06
0.00207515
1.57733e-06
0.00207434
1.47625e-06
0.00207358
1.37153e-06
0.00207287
1.26266e-06
0.00207221
1.14908e-06
0.00207162
1.03026e-06
0.00207108
9.05583e-07
0.0020706
7.74512e-07
0.00207019
6.36418e-07
0.00206984
4.90714e-07
0.00206957
3.36741e-07
0.00206938
1.73883e-07
0.00206926
1.45559e-09
0.00206923
-1.81176e-07
0.00206929
-3.74725e-07
0.00206944
-5.79839e-07
0.0020697
-7.97227e-07
0.00207006
-1.0275e-06
0.00207054
-1.27131e-06
0.00207113
-1.52916e-06
0.00207185
-1.80156e-06
0.00207271
-2.08882e-06
0.00207371
-2.39122e-06
0.00207485
-2.70877e-06
0.00207616
-3.04142e-06
0.00207763
-3.38877e-06
0.00207927
-3.75033e-06
0.00208109
-4.12522e-06
0.0020831
-4.51242e-06
0.0020853
-4.9105e-06
0.00208769
-5.31787e-06
0.00209029
-5.73256e-06
0.0020931
-6.15243e-06
0.00209612
-6.57501e-06
0.00209935
-6.99771e-06
0.00210279
-7.41768e-06
0.00210644
-7.83205e-06
0.0021103
-8.23778e-06
0.00211437
-8.63192e-06
0.00211863
-9.01148e-06
0.00212309
-9.37366e-06
0.00212772
-9.71572e-06
0.00213253
-1.00352e-05
0.00213751
-1.03299e-05
0.00214263
-1.05979e-05
0.00214789
-1.08376e-05
0.00215327
-1.10476e-05
0.00215876
-1.12271e-05
0.00216434
-1.13754e-05
0.00217
-1.14922e-05
0.00217572
-1.15777e-05
0.00218148
-1.16323e-05
0.00218727
-1.16565e-05
0.00219308
-1.16512e-05
0.00219889
-1.16177e-05
0.00220468
-1.15572e-05
0.00221044
-1.14713e-05
0.00221617
-1.13615e-05
0.00222184
-1.12296e-05
0.00222744
-1.10773e-05
0.00223297
-1.09066e-05
0.00223842
-1.07193e-05
0.00224378
-1.05174e-05
0.00224903
-1.03026e-05
0.00225418
-1.00768e-05
0.00225922
-9.84184e-06
0.00226414
-9.59938e-06
0.00226894
-9.35109e-06
0.00227362
-9.09853e-06
0.00227817
-8.84317e-06
0.00228259
-8.5864e-06
0.00228689
-8.32947e-06
0.00229106
-8.07355e-06
0.0022951
-7.8197e-06
0.00229901
-7.56888e-06
0.0023028
-7.32191e-06
0.00230647
-7.07955e-06
0.00231001
-6.8424e-06
0.00231344
-6.61102e-06
0.00231675
-6.38584e-06
0.00231995
-6.16722e-06
0.00232304
-5.9554e-06
0.00232602
-5.7506e-06
0.00232891
-5.55292e-06
0.00233169
-5.36243e-06
0.00233438
-5.17911e-06
0.00233697
-5.00293e-06
0.00233948
-4.83377e-06
0.0023419
-4.67152e-06
0.00234424
-4.516e-06
0.00234651
-4.36703e-06
0.0023487
-4.2244e-06
0.00235081
-4.08789e-06
0.00235286
-3.95725e-06
0.00235485
-3.83226e-06
0.00235677
-3.71264e-06
0.00235863
-3.59819e-06
0.00236044
-3.48861e-06
0.00236219
-3.3837e-06
0.00236388
-3.2832e-06
0.00236553
-3.1869e-06
0.00236713
-3.09455e-06
0.00236868
-3.00596e-06
0.00237019
-2.92091e-06
0.00237166
-2.83922e-06
0.00237308
-2.76068e-06
0.00237447
-2.68513e-06
0.00237581
-2.6124e-06
0.00237713
-2.54234e-06
0.0023784
-2.47479e-06
0.00237964
-2.40962e-06
0.00238085
-2.34669e-06
0.00238203
-2.28588e-06
0.00238318
-2.22708e-06
0.0023843
-2.17018e-06
0.00238539
-2.11507e-06
0.00238645
-2.06167e-06
0.00238748
-2.00988e-06
0.00238849
-1.95962e-06
0.00238948
-1.91082e-06
0.00239043
-1.8634e-06
0.00239137
-1.81729e-06
0.00239228
-1.77244e-06
0.00239317
-1.72877e-06
0.00239404
-1.68625e-06
0.00239489
-1.6448e-06
0.00239571
-1.6044e-06
0.00239652
-1.56498e-06
0.0023973
-1.52651e-06
0.00239807
-1.48895e-06
0.00239882
-1.45226e-06
0.00239955
-1.4164e-06
0.00240026
-1.38136e-06
0.00240095
-1.34707e-06
0.00240163
-1.31354e-06
0.00240229
-1.28071e-06
0.00240293
-1.24858e-06
0.00240356
-1.21711e-06
0.00240417
-1.18629e-06
0.00240476
-1.15609e-06
0.00240534
-1.12649e-06
0.00240591
-1.09747e-06
0.00240646
-1.06902e-06
0.002407
-1.04112e-06
0.00240752
-1.01375e-06
0.00240803
-9.8689e-07
0.00240852
-9.60542e-07
0.002409
-9.34676e-07
0.00240947
-9.09293e-07
0.00240993
-8.84369e-07
0.00241037
-8.59903e-07
0.00241081
-8.35873e-07
0.00241123
-8.1228e-07
0.00241163
-7.89102e-07
0.00241203
-7.66342e-07
0.00241241
-7.43979e-07
0.00241279
-7.22016e-07
0.00241315
-7.00432e-07
0.0024135
-6.79232e-07
0.00241384
-6.58397e-07
0.00241417
-6.3793e-07
0.00241449
-6.17813e-07
0.0024148
-5.98051e-07
0.0024151
-5.78626e-07
0.00241539
-5.59542e-07
0.00241568
-5.40783e-07
0.00241595
-5.22354e-07
0.00241621
-5.04239e-07
0.00241646
-4.86441e-07
0.00241671
-4.68946e-07
0.00241694
-4.51758e-07
0.00241717
-4.34863e-07
0.00241739
-4.18265e-07
0.0024176
-4.01949e-07
0.0024178
-3.8592e-07
0.002418
-3.70163e-07
0.00241818
-3.54684e-07
0.00241836
-3.39468e-07
0.00241853
-3.24519e-07
0.0024187
-3.09824e-07
0.00241885
-2.95386e-07
0.002419
-2.81192e-07
0.00241914
-2.67246e-07
0.00241928
-2.53534e-07
0.00241941
-2.4006e-07
0.00241953
-2.2681e-07
0.00241964
-2.13787e-07
0.00241975
-2.00978e-07
0.00241985
-1.88386e-07
0.00241995
-1.75998e-07
0.00242004
-1.63815e-07
0.00242012
-1.51826e-07
0.0024202
-1.40031e-07
0.00242027
-1.28419e-07
0.00242034
-1.1699e-07
0.0024204
-1.05732e-07
0.00242045
-9.46457e-08
0.0024205
-8.37191e-08
0.00242054
-7.29531e-08
0.00242058
-6.2335e-08
0.00242061
-5.18658e-08
0.00242064
-4.15328e-08
0.00242066
-3.1337e-08
0.00242068
-2.12659e-08
0.00242069
-1.132e-08
0.0024207
-1.48712e-09
0.0024207
8.23196e-09
0.0024207
1.7849e-08
0.00242069
2.73632e-08
0.00242068
3.67862e-08
0.00242066
4.61176e-08
0.00242064
5.53686e-08
0.00242062
6.45392e-08
0.00242059
7.36404e-08
0.00242055
8.26725e-08
0.00242051
9.16463e-08
0.00242047
1.00562e-07
0.00242042
1.0943e-07
0.00242037
1.18252e-07
0.00242031
1.27037e-07
0.00242025
1.35786e-07
0.00242018
1.44509e-07
0.00242011
1.53206e-07
0.00242004
1.61887e-07
0.00241996
1.70554e-07
0.00241987
1.79214e-07
0.00241979
1.87869e-07
0.00241969
1.96528e-07
0.0024196
2.05191e-07
0.0024195
2.13867e-07
0.00241939
2.22556e-07
0.00241928
2.31268e-07
0.00241917
2.40002e-07
0.00241905
2.48766e-07
0.00241893
2.57562e-07
0.0024188
2.66397e-07
0.00241867
2.75271e-07
0.00241853
2.84192e-07
0.00241839
2.93161e-07
0.00241825
3.02185e-07
0.0024181
3.11264e-07
0.00241795
3.20406e-07
0.00241779
3.29611e-07
0.00241762
3.38885e-07
0.00241746
3.4823e-07
0.00241728
3.57651e-07
0.00241711
3.6715e-07
0.00241693
3.76732e-07
0.00241674
3.86398e-07
0.00241655
3.96154e-07
0.00241635
4.06001e-07
0.00241615
4.15945e-07
0.00241594
4.25986e-07
0.00241573
4.3613e-07
0.00241552
4.46377e-07
0.0024153
4.56733e-07
0.00241507
4.67199e-07
0.00241484
4.77779e-07
0.0024146
4.88475e-07
0.00241436
4.99291e-07
0.00241411
5.10228e-07
0.00241386
5.21292e-07
0.0024136
5.32483e-07
0.00241333
5.43805e-07
0.00241306
5.55261e-07
0.00241279
5.66853e-07
0.0024125
5.78584e-07
0.00241222
5.90457e-07
0.00241192
6.02475e-07
0.00241162
6.1464e-07
0.00241132
6.26954e-07
0.00241101
6.39422e-07
0.00241069
6.52045e-07
0.00241036
6.64826e-07
0.00241003
6.77768e-07
0.0024097
6.90873e-07
0.00240935
7.04145e-07
0.002409
7.17586e-07
0.00240864
7.31199e-07
0.00240828
7.44987e-07
0.00240791
7.58952e-07
0.00240753
7.73097e-07
0.00240715
7.87425e-07
0.00240675
8.0194e-07
0.00240635
8.16644e-07
0.00240595
8.31539e-07
0.00240553
8.4663e-07
0.00240511
8.61918e-07
0.00240468
8.77408e-07
0.00240424
8.93102e-07
0.0024038
9.09003e-07
0.00240335
9.25115e-07
0.00240288
9.4144e-07
0.00240241
9.57983e-07
0.00240194
9.74746e-07
0.00240145
9.91734e-07
0.00240096
1.00895e-06
0.00240045
1.02639e-06
0.00239994
1.04408e-06
0.00239942
1.06199e-06
0.00239889
1.08016e-06
0.00239835
1.09856e-06
0.0023978
1.11722e-06
0.00239725
1.13613e-06
0.00239668
1.1553e-06
0.0023961
1.17473e-06
0.00239552
1.19443e-06
0.00239492
1.2144e-06
0.00239431
1.23464e-06
0.0023937
1.25517e-06
0.00239307
1.27597e-06
0.00239244
1.29707e-06
0.00239179
1.31846e-06
0.00239113
1.34015e-06
0.00239046
1.36214e-06
0.00238978
1.38443e-06
0.00238909
1.40704e-06
0.00238839
1.42996e-06
0.00238767
1.45321e-06
0.00238695
1.47678e-06
0.00238621
1.50068e-06
0.00238546
1.52492e-06
0.0023847
1.54949e-06
0.00238393
1.5744e-06
0.00238314
1.59966e-06
0.00238234
1.62527e-06
0.00238153
1.65122e-06
0.00238071
1.67751e-06
0.00237987
1.70416e-06
0.00237902
1.73114e-06
0.00237815
1.75846e-06
0.00237728
1.7861e-06
0.00237638
1.81404e-06
0.00237548
1.84225e-06
0.00237456
1.87071e-06
0.00237363
1.89934e-06
0.00237268
1.92807e-06
0.00237172
1.95672e-06
0.00237074
1.9853e-06
0.00236975
2.0126e-06
0.00236875
2.04082e-06
2.05883e-06
0.00247083
0.000190151
0.0024365
0.000143205
0.00240242
0.000111446
0.002371
8.81559e-05
0.00234324
7.04686e-05
0.00231944
5.7497e-05
0.0022991
4.79482e-05
0.00228161
4.07121e-05
0.00226644
3.5124e-05
0.00225317
3.07471e-05
0.00224145
2.72578e-05
0.002231
2.44266e-05
0.00222162
2.2094e-05
0.00221312
2.01454e-05
0.00220536
1.84964e-05
0.00219825
1.70843e-05
0.00219169
1.58621e-05
0.00218561
1.47936e-05
0.00217995
1.38512e-05
0.00217466
1.30132e-05
0.00216971
1.22626e-05
0.00216504
1.15859e-05
0.00216065
1.09724e-05
0.00215649
1.04135e-05
0.00215256
9.90226e-06
0.00214883
9.43299e-06
0.00214528
9.00099e-06
0.0021419
8.6023e-06
0.00213867
8.23351e-06
0.00213559
7.89164e-06
0.00213264
7.57403e-06
0.00212982
7.27826e-06
0.00212711
7.0021e-06
0.00212451
6.74347e-06
0.002122
6.50048e-06
0.00211959
6.27132e-06
0.00211727
6.05439e-06
0.00211503
5.84819e-06
0.00211287
5.6514e-06
0.00211078
5.46284e-06
0.00210876
5.28149e-06
0.00210682
5.10647e-06
0.00210493
4.93706e-06
0.00210311
4.77261e-06
0.00210136
4.6126e-06
0.00209966
4.45657e-06
0.00209802
4.30412e-06
0.00209643
4.15484e-06
0.0020949
4.00838e-06
0.00209343
3.86432e-06
0.002092
3.72226e-06
0.00209063
3.58171e-06
0.0020893
3.44219e-06
0.00208803
3.30314e-06
0.0020868
3.16398e-06
0.00208563
3.02406e-06
0.0020845
2.88273e-06
0.00208342
2.73929e-06
0.00208238
2.59303e-06
0.0020814
2.4432e-06
0.00208047
2.28906e-06
0.00207958
2.12984e-06
0.00207875
1.96476e-06
0.00207797
1.79304e-06
0.00207725
1.61387e-06
0.00207658
1.42641e-06
0.00207597
1.22983e-06
0.00207543
1.02324e-06
0.00207495
8.05737e-07
0.00207453
5.76381e-07
0.00207418
3.34209e-07
0.00207391
7.82098e-08
0.00207372
-1.92628e-07
0.00207361
-4.7937e-07
0.00207358
-7.83066e-07
0.00207365
-1.10479e-06
0.00207381
-1.44556e-06
0.00207408
-1.80638e-06
0.00207446
-2.1881e-06
0.00207495
-2.59154e-06
0.00207557
-3.01729e-06
0.00207632
-3.46579e-06
0.00207721
-3.93722e-06
0.00207824
-4.4315e-06
0.00207944
-4.94819e-06
0.00208079
-5.48655e-06
0.00208232
-6.04538e-06
0.00208403
-6.62313e-06
0.00208592
-7.21777e-06
0.00208801
-7.82685e-06
0.0020903
-8.44748e-06
0.0020928
-9.07639e-06
0.00209551
-9.70989e-06
0.00209843
-1.0344e-05
0.00210157
-1.09746e-05
0.00210492
-1.15971e-05
0.00210849
-1.2207e-05
0.00211228
-1.27998e-05
0.00211627
-1.33711e-05
0.00212047
-1.39164e-05
0.00212486
-1.44318e-05
0.00212944
-1.49135e-05
0.0021342
-1.5358e-05
0.00213912
-1.57625e-05
0.00214419
-1.61246e-05
0.00214941
-1.64422e-05
0.00215474
-1.6714e-05
0.00216019
-1.6939e-05
0.00216572
-1.71169e-05
0.00217134
-1.72478e-05
0.00217701
-1.73321e-05
0.00218273
-1.7371e-05
0.00218847
-1.73658e-05
0.00219423
-1.73182e-05
0.00219999
-1.72302e-05
0.00220573
-1.7104e-05
0.00221144
-1.69421e-05
0.00221711
-1.67472e-05
0.00222272
-1.65218e-05
0.00222827
-1.62688e-05
0.00223374
-1.59911e-05
0.00223913
-1.56913e-05
0.00224442
-1.53725e-05
0.00224961
-1.50372e-05
0.0022547
-1.46881e-05
0.00225967
-1.43279e-05
0.00226453
-1.3959e-05
0.00226927
-1.35836e-05
0.00227389
-1.32041e-05
0.00227838
-1.28224e-05
0.00228274
-1.24405e-05
0.00228698
-1.206e-05
0.00229109
-1.16826e-05
0.00229508
-1.13096e-05
0.00229894
-1.09424e-05
0.00230267
-1.05819e-05
0.00230629
-1.02292e-05
0.00230979
-9.88505e-06
0.00231317
-9.55007e-06
0.00231643
-9.2248e-06
0.00231959
-8.90964e-06
0.00232264
-8.60487e-06
0.00232559
-8.31066e-06
0.00232843
-8.0271e-06
0.00233118
-7.75419e-06
0.00233384
-7.49185e-06
0.0023364
-7.23995e-06
0.00233889
-6.99828e-06
0.00234128
-6.7666e-06
0.0023436
-6.54463e-06
0.00234584
-6.33207e-06
0.00234801
-6.12858e-06
0.00235011
-5.93381e-06
0.00235215
-5.7474e-06
0.00235412
-5.56898e-06
0.00235602
-5.3982e-06
0.00235787
-5.23468e-06
0.00235967
-5.07806e-06
0.00236141
-4.928e-06
0.00236309
-4.78415e-06
0.00236473
-4.64618e-06
0.00236632
-4.51378e-06
0.00236787
-4.38663e-06
0.00236937
-4.26446e-06
0.00237083
-4.14699e-06
0.00237225
-4.03395e-06
0.00237364
-3.92511e-06
0.00237498
-3.82022e-06
0.00237629
-3.71906e-06
0.00237756
-3.62144e-06
0.0023788
-3.52715e-06
0.00238001
-3.43602e-06
0.00238119
-3.34787e-06
0.00238233
-3.26255e-06
0.00238345
-3.1799e-06
0.00238454
-3.09979e-06
0.0023856
-3.02209e-06
0.00238663
-2.94667e-06
0.00238764
-2.87341e-06
0.00238863
-2.80222e-06
0.00238959
-2.73299e-06
0.00239052
-2.66563e-06
0.00239144
-2.60004e-06
0.00239233
-2.53616e-06
0.00239319
-2.4739e-06
0.00239404
-2.41318e-06
0.00239487
-2.35395e-06
0.00239567
-2.29614e-06
0.00239646
-2.23968e-06
0.00239723
-2.18453e-06
0.00239798
-2.13063e-06
0.00239871
-2.07794e-06
0.00239942
-2.0264e-06
0.00240011
-1.97598e-06
0.00240079
-1.92663e-06
0.00240145
-1.87832e-06
0.00240209
-1.83101e-06
0.00240272
-1.78466e-06
0.00240333
-1.73925e-06
0.00240393
-1.69475e-06
0.00240451
-1.65112e-06
0.00240508
-1.60834e-06
0.00240563
-1.56639e-06
0.00240616
-1.52524e-06
0.00240669
-1.48487e-06
0.0024072
-1.44526e-06
0.00240769
-1.40638e-06
0.00240818
-1.36823e-06
0.00240865
-1.33077e-06
0.0024091
-1.294e-06
0.00240955
-1.25789e-06
0.00240998
-1.22244e-06
0.0024104
-1.18761e-06
0.00241081
-1.15342e-06
0.00241121
-1.11982e-06
0.00241159
-1.08683e-06
0.00241197
-1.05442e-06
0.00241233
-1.02257e-06
0.00241268
-9.9129e-07
0.00241302
-9.60555e-07
0.00241336
-9.30356e-07
0.00241368
-9.00686e-07
0.00241399
-8.71531e-07
0.00241429
-8.42886e-07
0.00241458
-8.14737e-07
0.00241486
-7.87081e-07
0.00241514
-7.59903e-07
0.0024154
-7.332e-07
0.00241565
-7.06959e-07
0.0024159
-6.81177e-07
0.00241614
-6.55841e-07
0.00241636
-6.30948e-07
0.00241658
-6.06487e-07
0.00241679
-5.82452e-07
0.002417
-5.58834e-07
0.00241719
-5.35629e-07
0.00241738
-5.12825e-07
0.00241756
-4.90419e-07
0.00241773
-4.684e-07
0.0024179
-4.46764e-07
0.00241806
-4.25499e-07
0.00241821
-4.04603e-07
0.00241835
-3.84064e-07
0.00241849
-3.63878e-07
0.00241862
-3.44033e-07
0.00241874
-3.24526e-07
0.00241886
-3.05345e-07
0.00241897
-2.86485e-07
0.00241907
-2.67935e-07
0.00241917
-2.49689e-07
0.00241926
-2.31738e-07
0.00241934
-2.14075e-07
0.00241942
-1.96688e-07
0.0024195
-1.79573e-07
0.00241956
-1.62717e-07
0.00241962
-1.46116e-07
0.00241968
-1.29756e-07
0.00241973
-1.13633e-07
0.00241978
-9.77354e-08
0.00241982
-8.2056e-08
0.00241985
-6.65838e-08
0.00241988
-5.13124e-08
0.00241991
-3.62304e-08
0.00241993
-2.13315e-08
0.00241994
-6.60434e-09
0.00241995
7.95698e-09
0.00241995
2.2363e-08
0.00241995
3.66198e-08
0.00241995
5.07376e-08
0.00241994
6.47227e-08
0.00241993
7.85854e-08
0.00241991
9.23322e-08
0.00241988
1.05973e-07
0.00241985
1.19515e-07
0.00241982
1.32969e-07
0.00241978
1.4634e-07
0.00241974
1.59639e-07
0.0024197
1.72872e-07
0.00241965
1.86049e-07
0.00241959
1.99176e-07
0.00241953
2.12264e-07
0.00241947
2.25318e-07
0.0024194
2.38347e-07
0.00241933
2.51357e-07
0.00241925
2.64359e-07
0.00241917
2.77356e-07
0.00241908
2.90358e-07
0.00241899
3.03371e-07
0.0024189
3.16403e-07
0.0024188
3.29459e-07
0.0024187
3.42547e-07
0.00241859
3.55673e-07
0.00241848
3.68845e-07
0.00241837
3.82067e-07
0.00241825
3.95347e-07
0.00241812
4.0869e-07
0.00241799
4.22103e-07
0.00241786
4.35591e-07
0.00241772
4.49161e-07
0.00241758
4.62817e-07
0.00241743
4.76567e-07
0.00241728
4.90414e-07
0.00241712
5.04365e-07
0.00241696
5.18425e-07
0.0024168
5.326e-07
0.00241663
5.46893e-07
0.00241645
5.61312e-07
0.00241627
5.75859e-07
0.00241609
5.90542e-07
0.0024159
6.05363e-07
0.0024157
6.20328e-07
0.0024155
6.35442e-07
0.0024153
6.5071e-07
0.00241509
6.66135e-07
0.00241487
6.81724e-07
0.00241465
6.97478e-07
0.00241443
7.13405e-07
0.0024142
7.29507e-07
0.00241396
7.45789e-07
0.00241372
7.62256e-07
0.00241348
7.78911e-07
0.00241322
7.95759e-07
0.00241297
8.12805e-07
0.0024127
8.30051e-07
0.00241243
8.47502e-07
0.00241216
8.65163e-07
0.00241188
8.83037e-07
0.00241159
9.01129e-07
0.0024113
9.19442e-07
0.002411
9.3798e-07
0.0024107
9.56749e-07
0.00241038
9.75751e-07
0.00241007
9.94991e-07
0.00240974
1.01447e-06
0.00240941
1.0342e-06
0.00240908
1.05418e-06
0.00240873
1.07441e-06
0.00240838
1.0949e-06
0.00240803
1.11565e-06
0.00240766
1.13667e-06
0.00240729
1.15796e-06
0.00240692
1.17952e-06
0.00240653
1.20137e-06
0.00240614
1.2235e-06
0.00240574
1.24591e-06
0.00240533
1.26862e-06
0.00240492
1.29163e-06
0.0024045
1.31494e-06
0.00240407
1.33855e-06
0.00240363
1.36248e-06
0.00240318
1.38672e-06
0.00240273
1.41128e-06
0.00240227
1.43617e-06
0.0024018
1.46139e-06
0.00240132
1.48694e-06
0.00240084
1.51284e-06
0.00240034
1.53908e-06
0.00239984
1.56568e-06
0.00239932
1.59263e-06
0.0023988
1.61994e-06
0.00239827
1.64763e-06
0.00239773
1.67569e-06
0.00239718
1.70413e-06
0.00239663
1.73295e-06
0.00239606
1.76217e-06
0.00239548
1.79179e-06
0.00239489
1.82181e-06
0.0023943
1.85224e-06
0.00239369
1.88309e-06
0.00239307
1.91437e-06
0.00239244
1.94608e-06
0.00239181
1.97823e-06
0.00239116
2.01082e-06
0.0023905
2.04386e-06
0.00238983
2.07736e-06
0.00238915
2.11132e-06
0.00238845
2.14576e-06
0.00238775
2.18068e-06
0.00238703
2.21608e-06
0.00238631
2.25197e-06
0.00238557
2.28835e-06
0.00238482
2.32524e-06
0.00238405
2.36263e-06
0.00238328
2.40053e-06
0.00238249
2.43893e-06
0.00238169
2.47785e-06
0.00238088
2.51728e-06
0.00238005
2.5572e-06
0.00237921
2.59762e-06
0.00237836
2.63851e-06
0.0023775
2.67985e-06
0.00237662
2.72161e-06
0.00237572
2.76373e-06
0.00237482
2.80614e-06
0.0023739
2.84874e-06
0.00237296
2.89134e-06
0.00237201
2.93381e-06
0.00237105
2.97531e-06
0.00237007
3.01678e-06
3.05279e-06
0.00248171
0.000198923
0.0024614
0.000163491
0.00243769
0.000135137
0.00241322
0.000112603
0.00238932
9.43513e-05
0.00236699
7.98083e-05
0.00234662
6.83068e-05
0.00232819
5.91187e-05
0.00231159
5.17051e-05
0.00229664
4.56776e-05
0.00228315
4.07309e-05
0.00227093
3.66276e-05
0.00225981
3.31887e-05
0.00224966
3.02781e-05
0.00224035
2.7791e-05
0.00223177
2.56461e-05
0.00222383
2.37804e-05
0.00221646
2.21439e-05
0.00220959
2.06976e-05
0.00220317
1.94102e-05
0.00219716
1.82567e-05
0.0021915
1.72171e-05
0.00218618
1.62752e-05
0.00218116
1.54178e-05
0.0021764
1.46343e-05
0.0021719
1.39159e-05
0.00216762
1.32552e-05
0.00216356
1.26461e-05
0.00215969
1.20834e-05
0.002156
1.15624e-05
0.00215247
1.1079e-05
0.0021491
1.06297e-05
0.00214587
1.0211e-05
0.00214277
9.81975e-06
0.0021398
9.45315e-06
0.00213694
9.10849e-06
0.00213419
8.78328e-06
0.00213154
8.47528e-06
0.00212899
8.18244e-06
0.00212653
7.90294e-06
0.00212416
7.63517e-06
0.00212187
7.37775e-06
0.00211966
7.12951e-06
0.00211752
6.88945e-06
0.00211546
6.65671e-06
0.00211346
6.4306e-06
0.00211154
6.21047e-06
0.00210968
5.99577e-06
0.00210788
5.78595e-06
0.00210615
5.58048e-06
0.00210447
5.37879e-06
0.00210285
5.1803e-06
0.0021013
4.98434e-06
0.00209979
4.79022e-06
0.00209834