/*--------------------------------*- C++ -*----------------------------------*\
| =========                 |                                                 |
| \\      /  F ield         | OpenFOAM: The Open Source CFD Toolbox           |
|  \\    /   O peration     | Version:  2506                                  |
|   \\  /    A nd           | Website:  www.openfoam.com                      |
|    \\/     M anipulation  |                                                 |
\*---------------------------------------------------------------------------*/
FoamFile
{
    version     2.0;
    format      ascii;
    arch        "LSB;label=32;scalar=64";
    class       volVectorField;
    location    "100";
    object      U;
}
// * * * * * * * * * * * * * * * * * * * * * * * * * * * * * * * * * * * * * //

dimensions      [0 1 -1 0 0 0 0];

internalField   nonuniform List<vector> 
131949
(
(9.79003 0.508678 0)
(9.35423 0.191686 0)
(9.14347 0.0846076 0)
(9.05446 0.0438891 0)
(8.98414 0.0272374 0)
(8.92316 0.0208775 0)
(8.87498 0.0178705 0)
(8.83521 0.0158115 0)
(8.80037 0.0142265 0)
(8.76933 0.0129572 0)
(8.74149 0.0118941 0)
(8.71623 0.0109845 0)
(8.69306 0.0102001 0)
(8.67167 0.00951773 0)
(8.65181 0.00891805 0)
(8.63326 0.00838609 0)
(8.61587 0.00791029 0)
(8.59951 0.00748163 0)
(8.58407 0.00709303 0)
(8.56946 0.00673883 0)
(8.55559 0.00641452 0)
(8.5424 0.00611648 0)
(8.52984 0.00584176 0)
(8.51785 0.00558782 0)
(8.50639 0.00535251 0)
(8.49543 0.00513397 0)
(8.48491 0.00493061 0)
(8.47482 0.00474107 0)
(8.46512 0.00456409 0)
(8.45579 0.00439845 0)
(8.4468 0.00424302 0)
(8.43813 0.00409669 0)
(8.42976 0.00395844 0)
(8.42168 0.0038273 0)
(8.41386 0.00370242 0)
(8.4063 0.00358303 0)
(8.39898 0.00346845 0)
(8.3919 0.00335804 0)
(8.38504 0.00325128 0)
(8.37839 0.00314769 0)
(8.37196 0.00304687 0)
(8.36573 0.00294846 0)
(8.35971 0.00285219 0)
(8.35387 0.0027578 0)
(8.34823 0.00266505 0)
(8.34278 0.00257373 0)
(8.33751 0.0024836 0)
(8.33243 0.0023944 0)
(8.32752 0.00230587 0)
(8.32279 0.00221769 0)
(8.31824 0.00212951 0)
(8.31387 0.00204095 0)
(8.30967 0.0019516 0)
(8.30565 0.00186099 0)
(8.30182 0.00176866 0)
(8.29816 0.00167409 0)
(8.29469 0.00157679 0)
(8.29142 0.00147619 0)
(8.28834 0.00137176 0)
(8.28547 0.0012629 0)
(8.28281 0.00114908 0)
(8.28037 0.00102966 0)
(8.27817 0.000904076 0)
(8.27621 0.000771672 0)
(8.27451 0.000631866 0)
(8.27307 0.000483966 0)
(8.27193 0.000327372 0)
(8.27109 0.000161367 0)
(8.27057 -1.46588e-05 0)
(8.27038 -0.000201435 0)
(8.27056 -0.000399567 0)
(8.27112 -0.000609779 0)
(8.27209 -0.000832641 0)
(8.27349 -0.00106883 0)
(8.27534 -0.00131883 0)
(8.27767 -0.00158321 0)
(8.28051 -0.00186228 0)
(8.2839 -0.00215643 0)
(8.28785 -0.00246572 0)
(8.2924 -0.00279023 0)
(8.29758 -0.00312968 0)
(8.30343 -0.00348374 0)
(8.30996 -0.00385168 0)
(8.31722 -0.00423271 0)
(8.32522 -0.00462558 0)
(8.334 -0.00502894 0)
(8.34358 -0.00544102 0)
(8.35397 -0.00585993 0)
(8.36519 -0.00628336 0)
(8.37726 -0.00670897 0)
(8.39018 -0.00713403 0)
(8.40396 -0.00755581 0)
(8.41858 -0.00797134 0)
(8.43405 -0.00837771 0)
(8.45034 -0.00877186 0)
(8.46744 -0.00915093 0)
(8.48531 -0.00951202 0)
(8.50393 -0.0098525 0)
(8.52326 -0.0101699 0)
(8.54325 -0.0104619 0)
(8.56386 -0.0107268 0)
(8.58502 -0.0109628 0)
(8.60669 -0.0111686 0)
(8.62881 -0.0113435 0)
(8.65131 -0.0114868 0)
(8.67413 -0.0115982 0)
(8.69721 -0.0116779 0)
(8.72048 -0.0117263 0)
(8.74389 -0.0117441 0)
(8.76736 -0.0117323 0)
(8.79084 -0.0116921 0)
(8.81426 -0.0116247 0)
(8.83758 -0.0115319 0)
(8.86075 -0.0114153 0)
(8.8837 -0.0112767 0)
(8.90639 -0.0111178 0)
(8.92879 -0.0109407 0)
(8.95086 -0.0107473 0)
(8.97255 -0.0105395 0)
(8.99384 -0.0103191 0)
(9.01471 -0.0100881 0)
(9.03512 -0.00984828 0)
(9.05506 -0.00960135 0)
(9.07451 -0.00934899 0)
(9.09346 -0.00909275 0)
(9.1119 -0.00883413 0)
(9.12983 -0.00857446 0)
(9.14723 -0.00831503 0)
(9.16412 -0.00805698 0)
(9.18049 -0.00780135 0)
(9.19634 -0.00754905 0)
(9.21169 -0.00730093 0)
(9.22653 -0.00705767 0)
(9.24088 -0.00681989 0)
(9.25475 -0.00658808 0)
(9.26815 -0.00636268 0)
(9.28109 -0.00614397 0)
(9.29358 -0.00593223 0)
(9.30565 -0.00572758 0)
(9.31729 -0.00553016 0)
(9.32854 -0.00533997 0)
(9.33939 -0.00515701 0)
(9.34988 -0.00498119 0)
(9.36 -0.00481243 0)
(9.36978 -0.00465055 0)
(9.37923 -0.00449541 0)
(9.38837 -0.00434678 0)
(9.3972 -0.00420448 0)
(9.40574 -0.00406826 0)
(9.414 -0.0039379 0)
(9.42199 -0.00381314 0)
(9.42973 -0.00369375 0)
(9.43723 -0.00357947 0)
(9.4445 -0.00347009 0)
(9.45154 -0.00336532 0)
(9.45837 -0.00326498 0)
(9.46499 -0.0031688 0)
(9.47142 -0.00307659 0)
(9.47766 -0.00298812 0)
(9.48372 -0.0029032 0)
(9.48961 -0.00282163 0)
(9.49533 -0.00274324 0)
(9.50089 -0.00266783 0)
(9.5063 -0.00259526 0)
(9.51156 -0.00252534 0)
(9.51668 -0.00245797 0)
(9.52167 -0.00239297 0)
(9.52652 -0.00233023 0)
(9.53124 -0.00226962 0)
(9.53585 -0.00221103 0)
(9.54033 -0.00215434 0)
(9.5447 -0.00209946 0)
(9.54895 -0.00204629 0)
(9.5531 -0.00199474 0)
(9.55714 -0.00194473 0)
(9.56109 -0.00189618 0)
(9.56493 -0.00184901 0)
(9.56868 -0.00180318 0)
(9.57233 -0.00175858 0)
(9.5759 -0.00171519 0)
(9.57937 -0.00167292 0)
(9.58276 -0.00163175 0)
(9.58607 -0.00159161 0)
(9.5893 -0.00155247 0)
(9.59245 -0.00151426 0)
(9.59551 -0.00147697 0)
(9.59851 -0.00144054 0)
(9.60143 -0.00140495 0)
(9.60428 -0.00137015 0)
(9.60705 -0.00133612 0)
(9.60976 -0.00130283 0)
(9.6124 -0.00127026 0)
(9.61498 -0.00123836 0)
(9.61749 -0.00120713 0)
(9.61994 -0.00117653 0)
(9.62232 -0.00114655 0)
(9.62465 -0.00111716 0)
(9.62691 -0.00108836 0)
(9.62912 -0.00106011 0)
(9.63127 -0.00103241 7.1631e-105)
(9.63337 -0.00100522 -7.16234e-105)
(9.6354 -0.000978552 0)
(9.63739 -0.000952372 0)
(9.63932 -0.000926685 0)
(9.6412 -0.000901456 0)
(9.64303 -0.000876696 0)
(9.64481 -0.000852371 0)
(9.64654 -0.000828491 0)
(9.64822 -0.000805025 0)
(9.64986 -0.000781984 0)
(9.65144 -0.000759338 0)
(9.65299 -0.000737097 0)
(9.65448 -0.000715235 0)
(9.65594 -0.000693761 0)
(9.65735 -0.000672649 0)
(9.65871 -0.00065191 0)
(9.66004 -0.000631518 0)
(9.66132 -0.000611485 0)
(9.66257 -0.000591786 0)
(9.66377 -0.000572433 0)
(9.66493 -0.000553401 0)
(9.66606 -0.000534703 0)
(9.66715 -0.000516315 0)
(9.6682 -0.000498248 0)
(9.66922 -0.000480482 0)
(9.6702 -0.000463026 0)
(9.67114 -0.00044586 0)
(9.67205 -0.000428994 0)
(9.67293 -0.000412408 0)
(9.67377 -0.000396113 0)
(9.67458 -0.000380089 0)
(9.67536 -0.000364345 0)
(9.6761 -0.000348863 0)
(9.67682 -0.000333652 0)
(9.6775 -0.000318693 0)
(9.67815 -0.000303997 0)
(9.67878 -0.000289543 0)
(9.67937 -0.000275342 0)
(9.67994 -0.000261375 0)
(9.68048 -0.000247651 0)
(9.68099 -0.000234151 0)
(9.68147 -0.000220884 0)
(9.68193 -0.000207832 0)
(9.68236 -0.000195002 0)
(9.68276 -0.000182378 0)
(9.68314 -0.000169966 0)
(9.6835 -0.000157749 0)
(9.68383 -0.000145733 0)
(9.68414 -0.000133902 0)
(9.68442 -0.000122262 0)
(9.68468 -0.000110795 0)
(9.68491 -9.95083e-05 0)
(9.68513 -8.83839e-05 0)
(9.68532 -7.74279e-05 0)
(9.68549 -6.66235e-05 0)
(9.68563 -5.59761e-05 0)
(9.68576 -4.54689e-05 0)
(9.68586 -3.51073e-05 0)
(9.68595 -2.48747e-05 0)
(9.68601 -1.4776e-05 0)
(9.68606 -4.79523e-06 0)
(9.68608 5.06304e-06 0)
(9.68608 1.48144e-05 0)
(9.68607 2.44545e-05 0)
(9.68603 3.39984e-05 0)
(9.68598 4.34423e-05 0)
(9.6859 5.28008e-05 0)
(9.68581 6.20702e-05 0)
(9.6857 7.12651e-05 0)
(9.68557 8.03822e-05 0)
(9.68542 8.94356e-05 0)
(9.68526 9.84222e-05 0)
(9.68508 0.000107356 0)
(9.68488 0.000116234 0)
(9.68466 0.000125071 0)
(9.68442 0.000133862 0)
(9.68417 0.000142622 0)
(9.68389 0.000151347 0)
(9.6836 0.000160052 0)
(9.6833 0.000168733 0)
(9.68297 0.000177402 0)
(9.68263 0.000186058 0)
(9.68228 0.000194713 0)
(9.6819 0.000203363 0)
(9.68151 0.000212022 0)
(9.6811 0.000220686 0)
(9.68067 0.000229367 0)
(9.68022 0.000238062 0)
(9.67976 0.000246784 0)
(9.67928 0.000255529 0)
(9.67878 0.000264309 0)
(9.67827 0.00027312 0)
(9.67774 0.000281975 0)
(9.67719 0.00029087 0)
(9.67662 0.000299815 0)
(9.67603 0.000308809 0)
(9.67543 0.00031786 0)
(9.67481 0.000326969 0)
(9.67417 0.000336143 0)
(9.67351 0.00034538 0)
(9.67283 0.000354691 0)
(9.67214 0.000364072 0)
(9.67143 0.000373534 0)
(9.67069 0.000383073 0)
(9.66994 0.000392699 0)
(9.66917 0.00040241 0)
(9.66838 0.000412214 0)
(9.66757 0.00042211 0)
(9.66674 0.000432105 0)
(9.66589 0.000442198 0)
(9.66502 0.000452396 0)
(9.66413 0.000462699 0)
(9.66322 0.000473114 0)
(9.66229 0.000483639 0)
(9.66134 0.000494281 0)
(9.66037 0.000505041 0)
(9.65937 0.000515923 0)
(9.65835 0.000526927 0)
(9.65732 0.000538061 0)
(9.65626 0.000549322 0)
(9.65517 0.000560718 0)
(9.65407 0.000572248 0)
(9.65294 0.000583918 0)
(9.65179 0.000595727 0)
(9.65061 0.000607682 0)
(9.64941 0.000619782 0)
(9.64819 0.000632032 0)
(9.64694 0.000644433 0)
(9.64567 0.000656991 0)
(9.64437 0.000669704 0)
(9.64305 0.000682579 0)
(9.6417 0.000695617 0)
(9.64032 0.000708821 0)
(9.63892 0.000722192 0)
(9.63749 0.000735736 0)
(9.63604 0.000749454 0)
(9.63456 0.000763349 0)
(9.63305 0.000777424 0)
(9.63151 0.000791682 0)
(9.62994 0.000806126 0)
(9.62835 0.000820758 0)
(9.62673 0.000835582 0)
(9.62507 0.000850602 0)
(9.62339 0.000865818 0)
(9.62167 0.000881236 0)
(9.61993 0.000896858 0)
(9.61815 0.000912688 0)
(9.61635 0.000928728 0)
(9.61451 0.000944982 0)
(9.61264 0.000961453 0)
(9.61073 0.000978145 0)
(9.6088 0.000995061 0)
(9.60682 0.0010122 0)
(9.60482 0.00102958 0)
(9.60278 0.00104719 0)
(9.6007 0.00106504 0)
(9.59859 0.00108313 0)
(9.59645 0.00110147 0)
(9.59426 0.00112006 0)
(9.59204 0.0011389 0)
(9.58979 0.00115801 0)
(9.58749 0.00117737 0)
(9.58516 0.00119701 0)
(9.58278 0.00121691 0)
(9.58037 0.0012371 0)
(9.57792 0.00125756 0)
(9.57542 0.00127831 0)
(9.57289 0.00129935 0)
(9.57031 0.00132068 0)
(9.56769 0.00134232 0)
(9.56503 0.00136426 0)
(9.56232 0.00138651 0)
(9.55957 0.00140907 0)
(9.55678 0.00143196 0)
(9.55394 0.00145517 0)
(9.55105 0.00147871 0)
(9.54812 0.00150259 0)
(9.54514 0.00152681 0)
(9.54211 0.00155137 0)
(9.53903 0.00157629 0)
(9.5359 0.00160155 0)
(9.53272 0.00162717 0)
(9.5295 0.00165316 0)
(9.52622 0.0016795 0)
(9.52288 0.00170621 0)
(9.5195 0.00173329 0)
(9.51606 0.00176073 0)
(9.51256 0.00178852 0)
(9.50902 0.00181667 0)
(9.50541 0.00184515 0)
(9.50175 0.00187394 0)
(9.49803 0.00190302 0)
(9.49426 0.00193234 0)
(9.49042 0.00196182 0)
(9.48653 0.00199145 0)
(9.48258 0.00202078 0)
(9.47859 0.00205086 0)
(9.47444 0.0020768 0)
(9.47069 0.00211618 0)
(9.46488 0.00210539 0)
(9.89635 0.592402 0)
(9.64866 0.329232 0)
(9.44651 0.219545 0)
(9.30551 0.153472 0)
(9.19287 0.11121 0)
(9.10036 0.0864193 0)
(9.02664 0.0708482 0)
(8.96677 0.0599303 0)
(8.91632 0.0519437 0)
(8.87287 0.0459271 0)
(8.83493 0.041214 0)
(8.80132 0.0374049 0)
(8.77116 0.0342597 0)
(8.74382 0.0316159 0)
(8.71884 0.0293574 0)
(8.69584 0.0274011 0)
(8.67455 0.0256862 0)
(8.65473 0.0241674 0)
(8.6362 0.0228102 0)
(8.61881 0.0215882 0)
(8.60244 0.0204805 0)
(8.58697 0.0194709 0)
(8.57234 0.0185465 0)
(8.55845 0.0176968 0)
(8.54524 0.016913 0)
(8.53266 0.016188 0)
(8.52066 0.0155159 0)
(8.50919 0.0148915 0)
(8.49821 0.0143103 0)
(8.48769 0.0137683 0)
(8.47759 0.0132615 0)
(8.46788 0.0127864 0)
(8.45854 0.0123396 0)
(8.44954 0.011918 0)
(8.44086 0.0115187 0)
(8.43249 0.0111389 0)
(8.4244 0.0107763 0)
(8.41659 0.0104287 0)
(8.40903 0.0100941 0)
(8.40172 0.00977088 0)
(8.39465 0.00945748 0)
(8.38781 0.00915268 0)
(8.3812 0.00885543 0)
(8.37479 0.00856483 0)
(8.3686 0.00828013 0)
(8.36262 0.0080006 0)
(8.35683 0.00772558 0)
(8.35124 0.00745437 0)
(8.34585 0.00718623 0)
(8.34064 0.00692032 0)
(8.33562 0.00665577 0)
(8.33078 0.00639152 0)
(8.32613 0.0061265 0)
(8.32166 0.00585947 0)
(8.31737 0.00558914 0)
(8.31327 0.00531412 0)
(8.30934 0.00503298 0)
(8.30561 0.00474419 0)
(8.30206 0.00444621 0)
(8.29871 0.00413743 0)
(8.29556 0.00381623 0)
(8.29261 0.00348092 0)
(8.28988 0.00312983 0)
(8.28737 0.00276118 0)
(8.28509 0.00237325 0)
(8.28305 0.00196418 0)
(8.28126 0.00153216 0)
(8.27974 0.00107527 0)
(8.2785 0.000591629 0)
(8.27756 7.92353e-05 0)
(8.27693 -0.000463829 0)
(8.27663 -0.00103959 0)
(8.27667 -0.00164999 0)
(8.27709 -0.00229703 0)
(8.2779 -0.00298252 0)
(8.27912 -0.00370828 0)
(8.28078 -0.00447585 0)
(8.28291 -0.00528664 0)
(8.28553 -0.00614162 0)
(8.28867 -0.00704154 0)
(8.29236 -0.00798655 0)
(8.29664 -0.0089764 0)
(8.30152 -0.0100101 0)
(8.30705 -0.0110862 0)
(8.31326 -0.0122023 0)
(8.32016 -0.0133554 0)
(8.3278 -0.0145414 0)
(8.3362 -0.0157559 0)
(8.34539 -0.0169932 0)
(8.35537 -0.0182471 0)
(8.36618 -0.0195106 0)
(8.37783 -0.0207761 0)
(8.39032 -0.0220353 0)
(8.40366 -0.0232798 0)
(8.41785 -0.0245008 0)
(8.43288 -0.0256895 0)
(8.44874 -0.0268369 0)
(8.46542 -0.0279346 0)
(8.48287 -0.0289744 0)
(8.50108 -0.0299488 0)
(8.52001 -0.0308509 0)
(8.53961 -0.0316747 0)
(8.55983 -0.032415 0)
(8.58063 -0.0330676 0)
(8.60195 -0.0336295 0)
(8.62373 -0.0340985 0)
(8.64592 -0.0344736 0)
(8.66843 -0.0347546 0)
(8.69123 -0.0349423 0)
(8.71423 -0.0350386 0)
(8.73738 -0.0350457 0)
(8.76062 -0.034967 0)
(8.78389 -0.0348063 0)
(8.80711 -0.0345679 0)
(8.83026 -0.0342565 0)
(8.85325 -0.0338773 0)
(8.87606 -0.0334356 0)
(8.89863 -0.0329369 0)
(8.92092 -0.032387 0)
(8.94288 -0.0317914 0)
(8.9645 -0.0311558 0)
(8.98572 -0.0304857 0)
(9.00653 -0.0297866 0)
(9.0269 -0.0290636 0)
(9.04682 -0.0283218 0)
(9.06625 -0.0275659 0)
(9.0852 -0.0268005 0)
(9.10365 -0.0260297 0)
(9.12159 -0.0252575 0)
(9.13903 -0.0244874 0)
(9.15595 -0.0237226 0)
(9.17235 -0.0229661 0)
(9.18826 -0.0222206 0)
(9.20365 -0.0214882 0)
(9.21855 -0.020771 0)
(9.23297 -0.0200707 0)
(9.2469 -0.0193885 0)
(9.26037 -0.0187258 0)
(9.27338 -0.0180832 0)
(9.28595 -0.0174615 0)
(9.29809 -0.016861 0)
(9.30981 -0.0162819 0)
(9.32113 -0.0157244 0)
(9.33207 -0.0151883 0)
(9.34263 -0.0146733 0)
(9.35283 -0.0141791 0)
(9.36269 -0.0137053 0)
(9.37222 -0.0132512 0)
(9.38142 -0.0128163 0)
(9.39033 -0.0124 0)
(9.39894 -0.0120014 0)
(9.40728 -0.0116201 0)
(9.41535 -0.0112551 0)
(9.42316 -0.0109058 0)
(9.43073 -0.0105715 0)
(9.43806 -0.0102513 0)
(9.44517 -0.00994471 0)
(9.45206 -0.00965091 0)
(9.45875 -0.00936925 0)
(9.46525 -0.00909911 0)
(9.47155 -0.00883983 0)
(9.47767 -0.00859086 0)
(9.48362 -0.00835159 0)
(9.4894 -0.00812152 0)
(9.49502 -0.00790012 0)
(9.50049 -0.00768691 0)
(9.50581 -0.00748143 0)
(9.51098 -0.00728328 0)
(9.51602 -0.00709202 0)
(9.52092 -0.00690729 0)
(9.5257 -0.00672873 0)
(9.53035 -0.00655602 0)
(9.53488 -0.00638882 0)
(9.5393 -0.00622687 0)
(9.5436 -0.00606987 0)
(9.54779 -0.00591758 0)
(9.55188 -0.00576975 0)
(9.55587 -0.00562617 0)
(9.55975 -0.00548661 0)
(9.56354 -0.00535089 0)
(9.56724 -0.00521881 0)
(9.57085 -0.00509022 0)
(9.57436 -0.00496494 0)
(9.57779 -0.00484284 0)
(9.58114 -0.00472375 0)
(9.5844 -0.00460757 0)
(9.58758 -0.00449414 0)
(9.59068 -0.00438338 0)
(9.59371 -0.00427516 0)
(9.59667 -0.00416938 0)
(9.59955 -0.00406595 0)
(9.60236 -0.00396478 0)
(9.60509 -0.00386578 0)
(9.60777 -0.00376888 0)
(9.61037 -0.00367399 0)
(9.61291 -0.00358106 0)
(9.61539 -0.00349001 0)
(9.6178 -0.00340078 0)
(9.62015 -0.00331332 0)
(9.62244 -0.00322756 0)
(9.62468 -0.00314346 0)
(9.62685 -0.00306098 0)
(9.62897 -0.00298004 0)
(9.63103 -0.00290064 0)
(9.63304 -0.0028227 0)
(9.635 -0.0027462 0)
(9.6369 -0.0026711 0)
(9.63875 -0.00259737 0)
(9.64055 -0.00252496 0)
(9.6423 -0.00245386 0)
(9.644 -0.00238402 0)
(9.64566 -0.00231542 0)
(9.64727 -0.00224803 0)
(9.64883 -0.00218183 0)
(9.65035 -0.00211678 0)
(9.65182 -0.00205288 0)
(9.65325 -0.00199008 0)
(9.65463 -0.00192838 0)
(9.65598 -0.00186774 0)
(9.65728 -0.00180815 0)
(9.65854 -0.00174959 0)
(9.65976 -0.00169204 0)
(9.66094 -0.00163548 0)
(9.66209 -0.0015799 0)
(9.66319 -0.00152527 0)
(9.66426 -0.00147158 0)
(9.66529 -0.00141882 0)
(9.66629 -0.00136696 0)
(9.66725 -0.001316 0)
(9.66818 -0.00126591 0)
(9.66907 -0.00121669 0)
(9.66993 -0.00116831 0)
(9.67075 -0.00112077 0)
(9.67155 -0.00107405 0)
(9.67231 -0.00102813 0)
(9.67304 -0.000983 0)
(9.67374 -0.000938644 0)
(9.67441 -0.000895055 0)
(9.67505 -0.000852207 0)
(9.67566 -0.000810098 0)
(9.67624 -0.000768702 0)
(9.6768 -0.000728014 0)
(9.67732 -0.000688009 0)
(9.67782 -0.000648682 0)
(9.6783 -0.000610008 0)
(9.67874 -0.000571981 0)
(9.67916 -0.000534576 0)
(9.67956 -0.000497787 0)
(9.67993 -0.000461587 0)
(9.68028 -0.000425971 0)
(9.6806 -0.000390911 0)
(9.6809 -0.000356402 0)
(9.68117 -0.000322416 0)
(9.68142 -0.000288947 0)
(9.68165 -0.000255967 0)
(9.68186 -0.000223469 0)
(9.68204 -0.000191426 0)
(9.68221 -0.000159831 0)
(9.68235 -0.000128656 0)
(9.68247 -9.78939e-05 0)
(9.68257 -6.75176e-05 0)
(9.68265 -3.75185e-05 0)
(9.68271 -7.87116e-06 0)
(9.68275 2.14331e-05 0)
(9.68277 5.0419e-05 0)
(9.68277 7.9095e-05 0)
(9.68275 0.000107485 0)
(9.68271 0.000135599 0)
(9.68266 0.00016346 0)
(9.68258 0.000191077 0)
(9.68249 0.000218474 0)
(9.68238 0.000245661 0)
(9.68225 0.000272662 0)
(9.6821 0.000299486 0)
(9.68193 0.000326156 0)
(9.68175 0.000352683 0)
(9.68154 0.000379088 0)
(9.68132 0.000405382 0)
(9.68109 0.000431587 0)
(9.68083 0.000457712 0)
(9.68056 0.000483778 0)
(9.68027 0.000509795 0)
(9.67996 0.000535785 0)
(9.67964 0.000561754 0)
(9.67929 0.000587725 0)
(9.67894 0.000613705 0)
(9.67856 0.000639714 0)
(9.67817 0.00066576 0)
(9.67775 0.000691863 0)
(9.67733 0.00071803 0)
(9.67688 0.000744279 0)
(9.67642 0.000770619 0)
(9.67594 0.000797066 0)
(9.67544 0.00082363 0)
(9.67492 0.000850325 0)
(9.67439 0.000877161 0)
(9.67384 0.000904152 0)
(9.67327 0.000931307 0)
(9.67268 0.000958641 0)
(9.67207 0.000986161 0)
(9.67145 0.00101388 0)
(9.67081 0.00104181 0)
(9.67015 0.00106996 0)
(9.66947 0.00109835 0)
(9.66877 0.00112697 0)
(9.66805 0.00115584 0)
(9.66732 0.00118498 0)
(9.66656 0.00121439 0)
(9.66579 0.00124408 0)
(9.66499 0.00127406 0)
(9.66418 0.00130434 0)
(9.66334 0.00133493 0)
(9.66249 0.00136584 0)
(9.66162 0.00139708 0)
(9.66072 0.00142865 0)
(9.6598 0.00146057 0)
(9.65887 0.00149285 0)
(9.65791 0.00152548 0)
(9.65693 0.00155849 0)
(9.65592 0.00159188 0)
(9.6549 0.00162566 0)
(9.65385 0.00165984 0)
(9.65278 0.00169442 0)
(9.65169 0.00172941 0)
(9.65058 0.00176483 0)
(9.64944 0.00180068 0)
(9.64828 0.00183696 0)
(9.64709 0.00187369 0)
(9.64588 0.00191088 0)
(9.64465 0.00194853 0)
(9.64339 0.00198665 0)
(9.6421 0.00202525 0)
(9.64079 0.00206434 0)
(9.63946 0.00210392 0)
(9.63809 0.00214401 0)
(9.63671 0.00218461 0)
(9.63529 0.00222573 0)
(9.63385 0.00226738 0)
(9.63238 0.00230957 0)
(9.63088 0.00235231 0)
(9.62936 0.0023956 0)
(9.6278 0.00243945 0)
(9.62622 0.00248388 0)
(9.62461 0.00252889 0)
(9.62296 0.00257449 0)
(9.62129 0.00262069 0)
(9.61959 0.0026675 0)
(9.61786 0.00271493 0)
(9.61609 0.00276298 0)
(9.61429 0.00281168 0)
(9.61247 0.00286102 0)
(9.61061 0.00291103 0)
(9.60871 0.0029617 0)
(9.60678 0.00301305 0)
(9.60482 0.00306509 0)
(9.60283 0.00311784 0)
(9.6008 0.00317129 0)
(9.59873 0.00322547 0)
(9.59663 0.00328039 0)
(9.5945 0.00333605 0)
(9.59232 0.00339247 0)
(9.59011 0.00344966 0)
(9.58786 0.00350764 0)
(9.58558 0.00356641 0)
(9.58325 0.00362599 0)
(9.58089 0.00368639 0)
(9.57849 0.00374763 0)
(9.57604 0.00380972 0)
(9.57356 0.00387267 0)
(9.57103 0.00393651 0)
(9.56846 0.00400123 0)
(9.56585 0.00406686 0)
(9.5632 0.0041334 0)
(9.5605 0.00420089 0)
(9.55776 0.00426932 0)
(9.55497 0.00433872 0)
(9.55214 0.00440909 0)
(9.54926 0.00448046 0)
(9.54634 0.00455283 0)
(9.54337 0.00462622 0)
(9.54034 0.00470063 0)
(9.53728 0.00477609 0)
(9.53416 0.00485259 0)
(9.53099 0.00493015 0)
(9.52777 0.00500877 0)
(9.5245 0.00508845 0)
(9.52117 0.00516917 0)
(9.5178 0.00525094 0)
(9.51437 0.00533372 0)
(9.51089 0.00541747 0)
(9.50735 0.00550213 0)
(9.50375 0.00558761 0)
(9.5001 0.00567381 0)
(9.4964 0.0057605 0)
(9.49264 0.00584751 0)
(9.48881 0.00593399 0)
(9.48495 0.00602101 0)
(9.48095 0.00610108 0)
(9.4773 0.00619629 0)
(9.47167 0.0062177 0)
(9.94546 0.725953 0)
(9.82594 0.523975 0)
(9.67684 0.39361 0)
(9.54201 0.298936 0)
(9.42458 0.230396 0)
(9.32186 0.183138 0)
(9.2338 0.150046 0)
(9.1587 0.125887 0)
(9.09393 0.107805 0)
(9.03746 0.0940009 0)
(8.98779 0.0832031 0)
(8.94372 0.0745582 0)
(8.90426 0.0675024 0)
(8.86864 0.0616456 0)
(8.83626 0.0567087 0)
(8.80663 0.0524896 0)
(8.77936 0.0488397 0)
(8.75414 0.0456475 0)
(8.73071 0.0428285 0)
(8.70885 0.0403177 0)
(8.68839 0.0380647 0)
(8.66917 0.0360297 0)
(8.65108 0.0341812 0)
(8.634 0.0324942 0)
(8.61784 0.0309482 0)
(8.60252 0.0295266 0)
(8.58796 0.0282156 0)
(8.57411 0.0270035 0)
(8.56091 0.0258804 0)
(8.54831 0.0248376 0)
(8.53626 0.023867 0)
(8.52472 0.0229615 0)
(8.51365 0.0221142 0)
(8.50303 0.0213188 0)
(8.49282 0.0205696 0)
(8.48299 0.0198613 0)
(8.47352 0.0191888 0)
(8.46439 0.0185479 0)
(8.45559 0.0179346 0)
(8.44709 0.0173452 0)
(8.43888 0.0167769 0)
(8.43095 0.0162269 0)
(8.42329 0.0156931 0)
(8.41588 0.0151736 0)
(8.40873 0.0146668 0)
(8.40181 0.0141713 0)
(8.39513 0.013686 0)
(8.38868 0.0132095 0)
(8.38244 0.0127407 0)
(8.37643 0.0122781 0)
(8.37062 0.0118205 0)
(8.36502 0.0113662 0)
(8.35962 0.0109136 0)
(8.35442 0.0104606 0)
(8.34941 0.0100053 0)
(8.3446 0.0095456 0)
(8.33998 0.0090791 0)
(8.33556 0.00860347 0)
(8.33133 0.00811622 0)
(8.32729 0.00761485 0)
(8.32345 0.00709675 0)
(8.31982 0.0065593 0)
(8.31638 0.00599979 0)
(8.31316 0.00541552 0)
(8.31015 0.00480369 0)
(8.30736 0.00416145 0)
(8.30481 0.00348587 0)
(8.30249 0.00277397 0)
(8.30043 0.00202265 0)
(8.29862 0.00122877 0)
(8.29709 0.000389069 0)
(8.29585 -0.000499752 0)
(8.29491 -0.00144109 0)
(8.29429 -0.00243832 0)
(8.294 -0.00349487 0)
(8.29408 -0.00461401 0)
(8.29453 -0.0057989 0)
(8.29538 -0.00705239 0)
(8.29665 -0.00837704 0)
(8.29838 -0.00977485 0)
(8.30059 -0.0112473 0)
(8.30331 -0.0127951 0)
(8.30657 -0.014418 0)
(8.3104 -0.0161151 0)
(8.31484 -0.0178839 0)
(8.31992 -0.0197212 0)
(8.32567 -0.021622 0)
(8.33213 -0.0235802 0)
(8.33932 -0.0255884 0)
(8.34728 -0.0276375 0)
(8.35603 -0.0297172 0)
(8.3656 -0.0318161 0)
(8.376 -0.0339215 0)
(8.38726 -0.0360198 0)
(8.39938 -0.0380969 0)
(8.41237 -0.040138 0)
(8.42623 -0.0421282 0)
(8.44095 -0.0440527 0)
(8.45653 -0.0458972 0)
(8.47293 -0.0476479 0)
(8.49013 -0.0492919 0)
(8.5081 -0.0508177 0)
(8.52681 -0.0522148 0)
(8.5462 -0.0534746 0)
(8.56623 -0.0545897 0)
(8.58684 -0.0555548 0)
(8.60798 -0.0563661 0)
(8.62958 -0.0570214 0)
(8.65158 -0.0575204 0)
(8.67392 -0.0578642 0)
(8.69654 -0.0580554 0)
(8.71936 -0.0580979 0)
(8.74232 -0.0579969 0)
(8.76536 -0.0577586 0)
(8.78842 -0.05739 0)
(8.81144 -0.0568989 0)
(8.83436 -0.0562937 0)
(8.85714 -0.0555833 0)
(8.87972 -0.0547768 0)
(8.90205 -0.0538834 0)
(8.9241 -0.0529127 0)
(8.94582 -0.0518738 0)
(8.96718 -0.0507762 0)
(8.98816 -0.0496286 0)
(9.00871 -0.0484399 0)
(9.02883 -0.0472184 0)
(9.04849 -0.0459721 0)
(9.06768 -0.0447085 0)
(9.08638 -0.0434346 0)
(9.10458 -0.042157 0)
(9.12229 -0.0408817 0)
(9.13948 -0.0396142 0)
(9.15617 -0.0383594 0)
(9.17235 -0.0371218 0)
(9.18804 -0.0359052 0)
(9.20322 -0.0347131 0)
(9.21792 -0.0335483 0)
(9.23214 -0.0324131 0)
(9.24588 -0.0313096 0)
(9.25917 -0.0302393 0)
(9.27201 -0.0292032 0)
(9.28442 -0.0282022 0)
(9.29641 -0.0272366 0)
(9.30799 -0.0263067 0)
(9.31917 -0.0254122 0)
(9.32998 -0.0245528 0)
(9.34042 -0.023728 0)
(9.35051 -0.0229369 0)
(9.36027 -0.0221789 0)
(9.3697 -0.0214527 0)
(9.37882 -0.0207575 0)
(9.38764 -0.020092 0)
(9.39618 -0.0194551 0)
(9.40445 -0.0188456 0)
(9.41245 -0.0182623 0)
(9.4202 -0.0177038 0)
(9.42772 -0.0171691 0)
(9.43501 -0.0166569 0)
(9.44207 -0.0161661 0)
(9.44893 -0.0156956 0)
(9.45558 -0.0152442 0)
(9.46204 -0.014811 0)
(9.46832 -0.014395 0)
(9.47442 -0.0139951 0)
(9.48034 -0.0136106 0)
(9.48611 -0.0132405 0)
(9.49171 -0.012884 0)
(9.49716 -0.0125404 0)
(9.50247 -0.0122091 0)
(9.50763 -0.0118892 0)
(9.51266 -0.0115802 0)
(9.51756 -0.0112815 0)
(9.52232 -0.0109925 0)
(9.52697 -0.0107127 0)
(9.5315 -0.0104416 0)
(9.53591 -0.0101788 0)
(9.54021 -0.00992389 0)
(9.5444 -0.00967638 0)
(9.54849 -0.00943595 0)
(9.55248 -0.00920224 0)
(9.55636 -0.00897493 0)
(9.56015 -0.00875371 0)
(9.56385 -0.0085383 0)
(9.56746 -0.00832843 0)
(9.57098 -0.00812385 0)
(9.57441 -0.00792432 0)
(9.57776 -0.00772964 0)
(9.58102 -0.00753958 0)
(9.58421 -0.00735397 0)
(9.58731 -0.00717261 0)
(9.59034 -0.00699535 0)
(9.5933 -0.00682202 0)
(9.59618 -0.00665247 0)
(9.599 -0.00648656 0)
(9.60174 -0.00632417 0)
(9.60441 -0.00616516 0)
(9.60702 -0.00600943 0)
(9.60957 -0.00585685 0)
(9.61204 -0.00570734 0)
(9.61446 -0.00556079 1.0793e-102)
(9.61682 -0.00541711 -1.07917e-102)
(9.61911 -0.00527621 0)
(9.62135 -0.00513802 0)
(9.62352 -0.00500244 0)
(9.62565 -0.00486943 0)
(9.62771 -0.00473889 0)
(9.62972 -0.00461077 0)
(9.63168 -0.00448501 0)
(9.63359 -0.00436154 0)
(9.63544 -0.00424031 0)
(9.63725 -0.00412127 0)
(9.639 -0.00400436 0)
(9.64071 -0.00388954 0)
(9.64236 -0.00377675 0)
(9.64398 -0.00366596 0)
(9.64554 -0.00355713 0)
(9.64706 -0.0034502 0)
(9.64854 -0.00334515 0)
(9.64997 -0.00324194 0)
(9.65136 -0.00314052 0)
(9.6527 -0.00304088 0)
(9.65401 -0.00294296 0)
(9.65527 -0.00284674 0)
(9.6565 -0.00275219 0)
(9.65769 -0.00265929 0)
(9.65883 -0.00256799 0)
(9.65994 -0.00247828 0)
(9.66102 -0.00239011 0)
(9.66205 -0.00230348 0)
(9.66305 -0.00221835 0)
(9.66402 -0.00213469 0)
(9.66495 -0.00205249 0)
(9.66584 -0.00197171 0)
(9.66671 -0.00189233 0)
(9.66754 -0.00181432 0)
(9.66834 -0.00173767 0)
(9.6691 -0.00166235 0)
(9.66984 -0.00158832 0)
(9.67054 -0.00151558 0)
(9.67122 -0.00144409 0)
(9.67186 -0.00137383 0)
(9.67248 -0.00130478 0)
(9.67307 -0.0012369 0)
(9.67363 -0.00117018 0)
(9.67416 -0.00110459 0)
(9.67467 -0.0010401 0)
(9.67515 -0.000976684 0)
(9.6756 -0.000914318 0)
(9.67603 -0.000852977 0)
(9.67643 -0.00079263 0)
(9.67681 -0.000733252 0)
(9.67716 -0.000674812 0)
(9.67749 -0.000617286 0)
(9.67779 -0.000560642 0)
(9.67808 -0.000504855 0)
(9.67834 -0.000449892 0)
(9.67857 -0.000395728 0)
(9.67879 -0.000342331 0)
(9.67898 -0.000289674 0)
(9.67915 -0.000237724 0)
(9.6793 -0.000186456 0)
(9.67943 -0.000135837 0)
(9.67954 -8.58394e-05 0)
(9.67963 -3.64327e-05 0)
(9.6797 1.24086e-05 0)
(9.67975 6.07151e-05 0)
(9.67977 0.000108511 0)
(9.67978 0.000155827 0)
(9.67977 0.000202688 0)
(9.67975 0.000249124 0)
(9.6797 0.000295161 0)
(9.67963 0.000340828 0)
(9.67955 0.000386152 0)
(9.67944 0.000431162 0)
(9.67932 0.000475885 0)
(9.67918 0.000520349 0)
(9.67903 0.000564581 0)
(9.67885 0.00060861 0)
(9.67866 0.00065246 0)
(9.67845 0.000696161 0)
(9.67822 0.000739735 0)
(9.67797 0.000783211 0)
(9.67771 0.000826613 0)
(9.67743 0.000869967 0)
(9.67713 0.000913296 0)
(9.67682 0.000956625 0)
(9.67649 0.000999978 0)
(9.67614 0.00104338 0)
(9.67577 0.00108685 0)
(9.67539 0.00113041 0)
(9.67498 0.00117409 0)
(9.67456 0.00121791 0)
(9.67413 0.00126188 0)
(9.67367 0.00130603 0)
(9.6732 0.00135038 0)
(9.67271 0.00139495 0)
(9.67221 0.00143976 0)
(9.67168 0.00148484 0)
(9.67114 0.00153019 0)
(9.67058 0.00157584 0)
(9.67 0.0016218 0)
(9.6694 0.0016681 0)
(9.66879 0.00171475 0)
(9.66815 0.00176177 0)
(9.6675 0.00180918 0)
(9.66683 0.001857 0)
(9.66614 0.00190524 0)
(9.66543 0.00195392 0)
(9.6647 0.00200305 0)
(9.66395 0.00205265 0)
(9.66319 0.00210274 0)
(9.6624 0.00215333 0)
(9.66159 0.00220444 0)
(9.66076 0.00225608 0)
(9.65992 0.00230827 0)
(9.65905 0.00236103 0)
(9.65816 0.00241436 0)
(9.65725 0.00246828 0)
(9.65632 0.00252281 0)
(9.65536 0.00257796 0)
(9.65439 0.00263375 0)
(9.65339 0.00269019 0)
(9.65237 0.00274729 0)
(9.65133 0.00280506 0)
(9.65027 0.00286353 0)
(9.64918 0.0029227 0)
(9.64807 0.00298259 0)
(9.64694 0.00304321 0)
(9.64578 0.00310457 0)
(9.6446 0.00316669 0)
(9.64339 0.00322959 0)
(9.64216 0.00329327 0)
(9.6409 0.00335775 0)
(9.63962 0.00342304 0)
(9.63832 0.00348916 0)
(9.63698 0.00355612 0)
(9.63562 0.00362394 0)
(9.63424 0.00369262 0)
(9.63282 0.00376218 0)
(9.63138 0.00383264 0)
(9.62992 0.00390401 0)
(9.62842 0.00397631 0)
(9.6269 0.00404954 0)
(9.62534 0.00412373 0)
(9.62376 0.00419889 0)
(9.62215 0.00427503 0)
(9.62051 0.00435217 0)
(9.61884 0.00443032 0)
(9.61713 0.00450951 0)
(9.6154 0.00458974 0)
(9.61363 0.00467103 0)
(9.61184 0.00475341 0)
(9.61001 0.00483687 0)
(9.60815 0.00492146 0)
(9.60625 0.00500717 0)
(9.60432 0.00509403 0)
(9.60236 0.00518206 0)
(9.60036 0.00527127 0)
(9.59833 0.00536168 0)
(9.59626 0.00545332 0)
(9.59416 0.00554619 0)
(9.59202 0.00564033 0)
(9.58985 0.00573575 0)
(9.58763 0.00583247 0)
(9.58538 0.00593052 0)
(9.58309 0.0060299 0)
(9.58076 0.00613066 0)
(9.57839 0.0062328 0)
(9.57599 0.00633634 0)
(9.57354 0.00644132 0)
(9.57105 0.00654776 0)
(9.56852 0.00665567 0)
(9.56594 0.00676508 0)
(9.56333 0.00687602 0)
(9.56067 0.0069885 0)
(9.55797 0.00710255 0)
(9.55522 0.00721819 0)
(9.55243 0.00733544 0)
(9.54959 0.00745433 0)
(9.5467 0.00757487 0)
(9.54377 0.00769709 0)
(9.54079 0.007821 0)
(9.53777 0.00794661 0)
(9.53469 0.00807393 0)
(9.53156 0.00820298 0)
(9.52839 0.00833374 0)
(9.52516 0.00846621 0)
(9.52188 0.00860037 0)
(9.51855 0.00873618 0)
(9.51517 0.00887358 0)
(9.51174 0.00901248 0)
(9.50825 0.00915275 0)
(9.5047 0.00929421 0)
(9.5011 0.00943656 0)
(9.49745 0.00957945 0)
(9.49373 0.00972203 0)
(9.48998 0.00986408 0)
(9.48609 0.0100013 0)
(9.48253 0.0101398 0)
(9.47705 0.0102435 0)
(9.95587 0.78226 0)
(9.89613 0.624969 0)
(9.80206 0.503301 0)
(9.70135 0.408884 0)
(9.60377 0.334873 0)
(9.51102 0.277945 0)
(9.42526 0.234264 0)
(9.34764 0.200266 0)
(9.27778 0.173477 0)
(9.21489 0.152151 0)
(9.1582 0.134958 0)
(9.10696 0.120903 0)
(9.06045 0.109266 0)
(9.01805 0.0995126 0)
(8.97923 0.0912443 0)
(8.94353 0.0841579 0)
(8.91056 0.0780227 0)
(8.88001 0.0726613 0)
(8.85159 0.0679354 0)
(8.82506 0.0637371 0)
(8.80024 0.059981 0)
(8.77694 0.0565993 0)
(8.75501 0.0535377 0)
(8.73434 0.0507523 0)
(8.7148 0.0482077 0)
(8.69631 0.0458747 0)
(8.67876 0.0437294 0)
(8.66209 0.0417514 0)
(8.64623 0.0399235 0)
(8.63112 0.0382307 0)
(8.61669 0.0366598 0)
(8.6029 0.0351984 0)
(8.5897 0.0338357 0)
(8.57706 0.0325611 0)
(8.56492 0.0313654 0)
(8.55326 0.0302396 0)
(8.54205 0.0291758 0)
(8.53126 0.0281666 0)
(8.52086 0.0272053 0)
(8.51083 0.0262861 0)
(8.50116 0.0254038 0)
(8.49183 0.0245539 0)
(8.48282 0.0237327 0)
(8.47412 0.022937 0)
(8.46572 0.0221641 0)
(8.45761 0.0214117 0)
(8.44977 0.0206777 0)
(8.44219 0.0199602 0)
(8.43488 0.0192576 0)
(8.42781 0.0185678 0)
(8.42099 0.0178891 0)
(8.41441 0.0172191 0)
(8.40805 0.0165558 0)