# p  FACE_DATA 11666
# x y z  p
0.0596589 0.0485184 0.00125 -21.6163
0.101562 0.0658665 0.00124988 -49.4643
0.134326 0.0763298 0.00125007 -59.9917
0.0156349 -0.00987769 0.00124999 -55.2543
0.00986925 -0.00870838 0.00875 -85.7616
0.015635 -0.00987629 0.00874999 -55.6383
0.0241069 -0.0106137 0.00124999 -41.1336
0.0176922 -0.0101479 0.00874997 -66.2308
0.0241084 -0.0106006 0.00875 -39.2295
0.00763978 -0.00781489 0.00875 -58.8821
0.00249986 0.007756 0.00124998 86.0662
0.00249976 0.00775583 0.00875 85.6981
0.0100541 0.0171346 0.00125 48.6572
0.0100541 0.0171346 0.00875 48.3108
0.0346937 0.0353866 0.00125 1.3064
0.0346936 0.0353866 0.00875 0.975072
0.0515461 0.0446016 0.00125 -19.9426
0.0515461 0.0446016 0.00875 -20.1831
0.0596591 0.0485182 0.00875 -21.7757
0.0739278 0.0550046 0.00124997 -32.9786
0.0739295 0.0549989 0.00875 -33.9414
0.0761697 0.0559647 0.00125002 -31.8298
0.0761716 0.055959 0.00875 -30.3866
0.0992795 0.0650143 0.00125006 -45.2454
0.0992798 0.0650141 0.00875 -45.3728
0.124167 0.0734248 0.0012499 -65.341
0.124168 0.0734247 0.00875 -65.5144
0.126 0.0739553 0.0012501 -66.2937
0.126001 0.0739544 0.00875 -66.4657
0.00348497 -0.00540105 0.00375 -57.6821
0.00348498 -0.00540103 0.00125 -59.2326
0.00390561 0.00991142 0.00125001 80.0244
0.00390554 0.00991136 0.00375001 97.5899
0.0123385 0.0192647 0.00125 42.7615
0.0123385 0.0192647 0.00375 50.4282
0.0285313 0.0316828 0.00375 1.51058
0.0285313 0.0316828 0.00125 0.803456
0.0451676 0.0412112 0.00375 -8.25045
0.0618131 0.0495539 0.00374999 -23.0765
0.0596589 0.0485185 0.00375001 -21.2489
0.0783681 0.0569126 0.00125 -35.7934
0.0783681 0.0569126 0.00374999 -35.7817
0.0867428 0.0603561 0.00375001 -45.5879
0.101562 0.0658665 0.00375 -49.5407
0.103292 0.0664919 0.00124992 -53.6783
0.103292 0.066492 0.00374999 -53.9267
0.111447 0.0692183 0.00375004 -53.7555
0.134325 0.0763333 0.00374992 -60.7565
0.136722 0.0770123 0.00124995 -56.3652
0.136721 0.0770159 0.00375005 -59.2298
0.145051 0.0793848 0.00375008 -63.0302
0.0156347 -0.00987844 0.00375 -70.0836
0.0136076 -0.00949862 0.00125 -59.3456
0.0136076 -0.00949862 0.00375 -76.013
0.0176912 -0.0101618 0.00374995 -81.1193
0.0197529 -0.0103145 0.00125003 -54.3036
0.0197524 -0.0103197 0.00375004 -69.5798
0.0241068 -0.0106201 0.00374998 -52.067
0.0217146 -0.0104413 0.00125002 -44.5666
0.0217143 -0.0104492 0.00375006 -57.7991
0.0282211 -0.0108018 0.00375 -52.1394
0.0302103 -0.0108156 0.00375 -44.3343
0.0076396 -0.0078153 0.00375001 -70.4034
0.00547024 -0.00679722 0.00125 -89.9313
0.00143952 -0.00309457 0.00125002 -6.89367
0.00249975 0.00775596 0.00374998 106.703
0.0058448 0.0124572 0.00375 81.9569
0.0079031 0.0148477 0.00375 74.1234
0.0100541 0.0171346 0.00375 57.9058
0.0141149 0.0208497 0.00374999 48.0943
0.0201896 0.0257898 0.00125 23.4904
0.0326383 0.0341513 0.00375 6.55711
0.0346936 0.0353866 0.00375 2.79128
0.0367466 0.0366202 0.00125 -2.44868
0.0367466 0.0366202 0.00375 -1.70539
0.0515461 0.0446016 0.00374999 -19.3124
0.0531428 0.0453811 0.00125 -22.2596
0.0639772 0.0505932 0.00375 -25.7059
0.0700375 0.053339 0.00125 -30.0304
0.0739264 0.0550072 0.00374994 -32.9733
0.0722766 0.0543039 0.00125 -31.1695
0.0761684 0.0559673 0.00375005 -32.8962
0.0805723 0.0578565 0.00125 -38.0793
0.0805723 0.0578565 0.00375 -38.276
0.0930067 0.0626838 0.00125 -41.9388
0.0952866 0.0635344 0.00125 -44.0573
0.099279 0.0650161 0.00375 -46.0088
0.0969659 0.0641545 0.00125 -45.5462
0.105094 0.0670986 0.0012501 -55.124
0.105092 0.0671034 0.0037499 -55.4535
0.113773 0.0699913 0.00374998 -51.9759
0.120117 0.072101 0.00374998 -56.3249
0.120118 0.0720993 0.00125 -54.3641
0.124167 0.0734249 0.00375 -66.5266
0.12242 0.0728681 0.00125 -59.2298
0.125998 0.0739606 0.00374987 -66.4769
0.128392 0.0746367 0.00125 -55.3297
0.139046 0.0776819 0.00375 -62.8613
0.0156348 -0.00987736 0.00625 -70.3049
0.0136075 -0.00949862 0.00875 -59.5798
0.0136075 -0.00949862 0.00625 -76.1626
0.0176916 -0.0101555 0.00624994 -81.636
0.0197534 -0.0103035 0.00875 -53.1306
0.0197528 -0.0103122 0.00625 -68.768
0.0241076 -0.0106114 0.00625002 -51.1259
0.0217161 -0.0104253 0.00874999 -45.5538
0.0217152 -0.0104383 0.00625004 -58.4204
0.0282212 -0.0108018 0.00624999 -52.3553
0.0302103 -0.0108155 0.00625 -44.3866
0.00348497 -0.00540105 0.00625 -57.9706
0.00348498 -0.00540103 0.00875 -59.5944
0.00763959 -0.00781529 0.00625 -70.5488
0.00547019 -0.00679721 0.00875 -90.1267
0.00249971 0.0077559 0.00624999 106.349
0.00390549 0.00991128 0.00625 97.2801
0.00584477 0.0124572 0.00625 81.6945
0.00790308 0.0148476 0.00875 60.9478
0.0100541 0.0171346 0.00625001 57.6673
0.0123385 0.0192647 0.00624999 50.18
0.0141149 0.0208497 0.00625001 47.8143
0.0158688 0.0224099 0.00874999 34.3397
0.0182596 0.0243548 0.00874999 21.0402
0.0201895 0.0257898 0.00875 23.0686
0.0285313 0.0316828 0.00625 1.31878
0.0285313 0.0316829 0.00875 0.442585
0.0326383 0.0341513 0.00875 4.96275
0.0346936 0.0353866 0.00625 2.58917
0.0367466 0.0366202 0.00875 -2.75171
0.0367466 0.0366202 0.00625 -1.87405
0.0409383 0.038949 0.00625 -6.44253
0.0451676 0.0412112 0.00625 -8.40022
0.0451676 0.0412112 0.00875 -8.73702
0.0515461 0.0446016 0.00625 -19.4385
0.0531429 0.0453804 0.00875 -22.5643
0.0553392 0.0464351 0.00875 -16.9035
0.0618131 0.0495539 0.00624999 -23.192
0.059659 0.0485184 0.00625 -21.333
0.0639771 0.0505932 0.00625 -25.8119
0.0739276 0.0550035 0.00624998 -33.5561
0.0722765 0.0543039 0.00875 -31.4949
0.0761697 0.0559636 0.00625003 -32.2552
0.0867429 0.060356 0.00625 -45.616
0.0930069 0.0626832 0.00875001 -41.8751
0.0952867 0.0635344 0.00875 -44.2494
0.0992791 0.065016 0.00625 -46.0799
0.096966 0.0641543 0.00875 -45.7705
0.107436 0.0678759 0.00625005 -47.8752
0.111447 0.0692181 0.00624994 -54.1343
0.113773 0.0699911 0.00625004 -51.9559
0.120117 0.0721009 0.00625003 -56.3558
0.124167 0.0734248 0.00625009 -66.6123
0.122419 0.0728681 0.00875 -59.3628
0.125999 0.0739601 0.00624999 -66.5503
0.128392 0.074636 0.00875 -55.2487
0.128391 0.0746415 0.00624997 -57.7383
0.139047 0.0776819 0.00625 -63.2165
0.145051 0.0793845 0.00625001 -62.9693
0.00986926 -0.00870838 0.00124999 -85.6164
0.0076398 -0.00781489 0.00125 -58.7108
0.0176917 -0.0101574 0.00125007 -65.604
0.000200385 0.00101878 0.00124999 79.1039
0.0265126 0.0304203 0.00125 4.20221
0.0409383 0.038949 0.00125002 -6.47341
0.0430512 0.0400793 0.00124999 -6.5035
0.0844473 0.0594811 0.00125001 -48.3987
0.109733 0.0686517 0.00125 -51.0619
0.142658 0.0786991 0.00125 -64.1352
0.0264126 -0.0107599 0.00124996 -45.7468
0.0264128 -0.0107599 0.00875 -46.3844
0.00030057 -0.000910135 0.00124996 32.8755
0.000300479 -0.00090986 0.00875 32.2399
0.00143944 -0.00309431 0.00875 -7.46684
0.000200372 0.00101871 0.00875 78.5637
0.0245666 0.0290269 0.00125 14.5597
0.0220896 0.0271946 0.00125 21.9615
0.0245669 0.0290265 0.00875 14.2588
0.0220899 0.0271942 0.00875 21.5537
0.0265126 0.0304203 0.00875 3.81573
0.0409384 0.0389488 0.00875 -6.70601
0.0430512 0.0400793 0.00875 -6.79232
0.0574973 0.0474804 0.00125 -20.1636
0.055339 0.0464357 0.00125 -16.8237
0.0574975 0.0474802 0.00875 -20.4323
0.082793 0.0588075 0.00124999 -41.2855
0.082793 0.0588075 0.00875 -41.4119
0.0844474 0.0594808 0.00875 -48.5514
0.107436 0.0678775 0.00124998 -46.3064
0.101562 0.0658665 0.00875 -49.8302
0.107439 0.067868 0.00875 -43.2358
0.109734 0.0686517 0.00875 -52.2652
0.132483 0.0758129 0.00125 -59.808
0.132483 0.0758129 0.00875 -60.1567
0.134327 0.0763232 0.00875 -61.2732
0.140815 0.0781855 0.00125 -61.5208
0.140816 0.0781855 0.00875 -62.0152
0.142658 0.0786984 0.00875 -64.3438
0.00986924 -0.00870838 0.00375 -105.647
0.011654 -0.00912788 0.00125001 -81.3249
0.0116539 -0.00912788 0.00374999 -101.583
0.000200379 0.00101875 0.00374999 114.147
0.0013868 0.00543825 0.00125 94.1149
0.000586819 0.00298345 0.00125 90.3588
0.000586809 0.0029834 0.00375 120.675
0.0158685 0.0224104 0.00124999 34.7421
0.0182592 0.0243553 0.00125003 21.3428
0.0158681 0.0224108 0.00375001 40.6854
0.0182589 0.0243556 0.00374999 24.5624
0.0265126 0.0304203 0.00374999 6.35576
0.0430512 0.0400793 0.00375 -6.09591
0.0409382 0.0389491 0.00375 -6.32129
0.0451676 0.0412112 0.00125 -8.46869
0.0618131 0.0495539 0.00125 -23.3958
0.0700363 0.0533415 0.00375 -30.9427
0.0677828 0.0523723 0.00125 -37.5542
0.0677816 0.0523749 0.00374999 -35.9244
0.0844463 0.0594837 0.00375001 -47.5578
0.0867438 0.0603536 0.00125 -44.8359
0.109733 0.0686517 0.00375 -52.9681
0.107435 0.0678823 0.00375006 -49.4381
0.111448 0.0692157 0.00125 -52.1383
0.117778 0.0713216 0.00125 -54.9044
0.117778 0.0713233 0.00375003 -55.4271
0.142656 0.0787041 0.00374996 -64.52
0.145053 0.0793798 0.00125 -60.5844
0.0264127 -0.0107599 0.00374998 -56.2398
0.0282212 -0.0108018 0.00125 -43.3724
0.0302103 -0.0108155 0.00125 -37.4296
0.00547002 -0.00679765 0.00374999 -102.443
0.00143948 -0.00309443 0.00375002 10.6316
0.000300522 -0.00090999 0.00374997 62.8598
0.00138673 0.00543826 0.00375 118.267
0.00584483 0.0124572 0.00125 68.0174
0.00790312 0.0148477 0.00125 61.2957
0.014115 0.0208496 0.00125 39.9198
0.0201895 0.0257898 0.00374999 27.2609
0.0220894 0.0271949 0.00375001 25.4567
0.0245664 0.0290271 0.00375 17.746
0.0305852 0.0329173 0.00375 6.70666
0.0326383 0.0341513 0.00125 5.28432
0.0305852 0.0329173 0.00125 5.83852
0.0388237 0.0378181 0.00124998 -10.1631
0.0388236 0.0378182 0.00375 -9.70901
0.0472819 0.042342 0.00375 -10.7745
0.0493989 0.0434742 0.00125 -14.2274
0.0493989 0.0434743 0.00375001 -13.7728
0.0472819 0.042342 0.00125 -11.0491
0.053141 0.0453847 0.00374996 -21.574
0.0553372 0.0464394 0.00375002 -17.7947
0.0574973 0.0474805 0.00374999 -19.6509
0.0639772 0.0505932 0.00125 -26.0506
0.0661609 0.0516418 0.00125 -29.877
0.0661609 0.0516419 0.00375 -29.2138
0.0722765 0.0543039 0.00374998 -31.3113
0.082793 0.0588075 0.00375 -41.5342
0.0890204 0.0612055 0.00374999 -42.4953
0.0906999 0.0618265 0.00125 -42.8884
0.0906997 0.0618269 0.00375 -42.8382
0.0890204 0.0612055 0.00125 -42.5282
0.0930065 0.0626842 0.00375001 -42.7876
0.0952866 0.0635343 0.00374999 -44.6661
0.0969653 0.0641562 0.00375 -45.6687
0.113774 0.0699888 0.00125 -49.8171
0.116073 0.0707587 0.00125 -53.5031
0.116073 0.0707587 0.00375 -54.0889
0.12242 0.0728681 0.00375 -60.8289
0.128391 0.0746419 0.00375006 -57.7591
0.132483 0.0758129 0.00375 -60.462
0.130713 0.075309 0.00125 -60.2681
0.130714 0.075309 0.00375 -60.2684
0.140816 0.0781856 0.00375 -63.2631
0.139046 0.0776818 0.00125 -60.9024
0.147379 0.080025 0.00374988 -72.0255
0.149162 0.0804761 0.00125 -66.3549
0.149162 0.080476 0.00375 -67.3219
0.147379 0.0800251 0.00125 -72.1006
0.0264128 -0.0107599 0.00625001 -56.4433
0.0282212 -0.0108017 0.00875 -43.9975
0.0302103 -0.0108155 0.00875 -37.6408
0.00986925 -0.00870838 0.00625 -105.711
0.0116539 -0.00912788 0.00875 -81.4871
0.0116539 -0.00912788 0.00625 -101.645
0.00547 -0.00679764 0.00625 -102.633
0.00143945 -0.00309434 0.00625001 10.1814
0.000300489 -0.000909893 0.00624999 62.304
0.000200374 0.00101872 0.00625 113.59
0.00138678 0.00543818 0.00875 93.706
0.000586798 0.00298335 0.00875 89.8735
0.00138672 0.00543824 0.00625 117.873
0.000586801 0.00298336 0.00625 120.205
0.00390549 0.00991123 0.00875 79.6633
0.00584478 0.0124572 0.00875 67.6948
0.00790308 0.0148477 0.00624999 73.8597
0.0123384 0.0192647 0.00875 42.3758
0.0158684 0.0224104 0.00625 40.4226
0.0141149 0.0208496 0.00875 39.5107
0.0182593 0.0243552 0.00625 24.3977
0.0201895 0.0257898 0.00624999 27.0057
0.0220896 0.0271946 0.00625001 25.2154
0.0245666 0.0290269 0.00625 17.5735
0.0265127 0.0304203 0.00625 6.13462
0.0305852 0.0329173 0.00625 6.49913
0.0326383 0.0341513 0.00625 6.36945
0.0305852 0.0329173 0.00875 5.48047
0.0388238 0.0378178 0.00875 -10.4819
0.0388237 0.0378181 0.00625 -9.88272
0.0430512 0.0400793 0.00625 -6.25856
0.0472819 0.042342 0.00625 -10.928
0.049399 0.0434743 0.00875 -14.4719
0.049399 0.0434742 0.00625 -13.9065
0.0472819 0.042342 0.00875 -11.3111
0.053141 0.0453844 0.00625 -21.723
0.0553373 0.0464391 0.00625001 -17.8469
0.0574974 0.0474803 0.00625 -19.7863
0.0618132 0.0495539 0.00875 -23.6074
0.0639771 0.0505931 0.00875 -26.2463
0.0661609 0.0516419 0.00874999 -30.0844
0.066161 0.0516419 0.00625 -29.3248
0.0700363 0.0533413 0.00625001 -31.0421
0.0677828 0.052372 0.00875001 -37.809
0.0677817 0.0523748 0.00624999 -36.0384
0.0700375 0.0533386 0.00875 -30.2098
0.0722764 0.0543039 0.00625 -31.4979
0.0783681 0.0569126 0.00875 -36.3558
0.0783681 0.0569126 0.00625 -35.9441
0.0805723 0.0578565 0.00875 -38.5147
0.0805723 0.0578565 0.00625 -38.4598
0.082793 0.0588075 0.00625 -41.607
0.0844464 0.0594835 0.00624997 -47.6312
0.0867439 0.0603532 0.00875 -44.8833
0.0890205 0.0612055 0.00625 -42.5732
0.0907001 0.0618259 0.00874999 -43.1219
0.0906999 0.0618264 0.00625 -42.972
0.0890204 0.0612055 0.00875 -42.6832
0.0930067 0.0626838 0.00625 -42.73
0.0952866 0.0635343 0.00625 -44.7477
0.0969653 0.0641562 0.00625 -45.778
0.101562 0.0658665 0.00625 -49.7544
0.103292 0.0664918 0.00874999 -54.1164
0.103292 0.0664919 0.00625 -54.193
0.105096 0.0670889 0.00875001 -56.8993
0.105094 0.067097 0.00624998 -56.5426
0.109733 0.0686517 0.00625 -53.4078
0.111447 0.0692154 0.00875 -52.9267
0.113773 0.0699884 0.00875 -49.7326
0.116073 0.0707587 0.00875 -53.671
0.116073 0.0707587 0.00625 -54.1478
0.117778 0.0713215 0.00875 -55.1064
0.117778 0.0713233 0.00624996 -55.5143
0.120118 0.0720992 0.00875 -54.4204
0.12242 0.0728681 0.00625 -60.8902
0.132483 0.0758129 0.00625 -60.6629
0.130713 0.075309 0.00875 -60.6304
0.130713 0.0753091 0.00625 -60.4562
0.134326 0.0763288 0.00624998 -61.5723
0.136724 0.0770058 0.00875 -54.1487
0.136722 0.0770114 0.00625004 -58.0477
0.140816 0.0781855 0.00625 -63.5182
0.139046 0.0776819 0.00875 -61.7904
0.142656 0.0787038 0.00625 -64.6321
0.145053 0.0793791 0.00875 -60.4509
0.14738 0.0800251 0.00625 -72.0777
0.149162 0.080476 0.00875 -66.523
0.149162 0.0804761 0.00625 -67.3947
0.14738 0.080025 0.00875 -72.2454
0.0490523 -0.010642 0.00125001 -8.65644
0.049052 -0.010642 0.00874999 -10.6175
0.0490521 -0.010642 0.00375001 -17.4518
0.046909 -0.0106865 0.00374992 -16.4955
0.049052 -0.010642 0.00625001 -24.8609
0.0469091 -0.0106865 0.00875 -10.1029
0.0469091 -0.0106865 0.00624997 -18.8042
0.551041 0.00119257 0 26.6237
0.559375 0.00119249 0 27.029
0.567708 0.00119252 0 27.4143
0.567708 0.0107194 0 27.9344
0.576042 0.00119259 0 27.7707
0.576041 0.0107218 0 28.2792
0.576021 0.0204946 0 28.6637
0.584375 0.00119258 0 28.107
0.584374 0.0107217 0 28.6215
0.584355 0.0205525 0 28.958
0.592709 0.00119253 0 28.4271
0.592708 0.0107159 0 28.951
0.592705 0.0202704 0 29.2451
0.551041 0.00119257 0.01 26.6152
0.559375 0.0011925 0.01 27.0163
0.567708 0.00119252 0.01 27.4001
0.567708 0.0107193 0.01 27.9138
0.576042 0.0011926 0.01 27.7585
0.576041 0.0107217 0.01 28.267
0.576024 0.020507 0.01 28.6386
0.584375 0.00119259 0.01 28.0956
0.584374 0.0107215 0.01 28.6137
0.584355 0.0205506 0.01 28.9768
0.592709 0.00119254 0.01 28.4139
0.592708 0.0107159 0.01 28.9359
0.592705 0.0202704 0.01 29.1901
0.551041 -0.00114394 0 26.4621
0.557292 -0.00114396 0 26.7643
0.559375 -0.00114396 0 26.8645
0.565625 -0.00114396 0 27.1534
0.567708 -0.00114396 0 27.2476
0.573959 -0.00114412 0 27.517
0.573955 0.0204681 0 28.4049
0.576041 -0.00114412 0 27.6049
0.582292 -0.00114412 0 27.8584
0.582273 0.0205724 0 28.9264
0.584375 -0.00114412 0 27.942
0.590625 -0.00114413 0 28.1835
0.590744 0.0263698 0 29.2208
0.590616 0.0203182 0 29.1721
0.592708 -0.00114414 0 28.2629
0.592779 0.026369 0 29.4256
0.557292 -0.00114383 0.01 26.7538
0.551041 -0.0011438 0.01 26.4543
0.565625 -0.00114382 0.01 27.1407
0.559375 -0.00114383 0.01 26.8535
0.573959 -0.00114387 0.01 27.5048
0.567708 -0.00114382 0.01 27.2348
0.57395 0.0204816 0.01 28.4443
0.582292 -0.00114387 0.01 27.8472
0.576041 -0.00114387 0.01 27.5931
0.582274 0.0205703 0.01 28.9036
0.590625 -0.00114389 0.01 28.1713
0.584375 -0.00114387 0.01 27.931
0.590616 0.0203179 0.01 29.1342
0.590748 0.0263839 0.01 29.3159
0.592708 -0.00114389 0.01 28.2502
0.592771 0.0263899 0.01 29.2526
0.576042 0.00833589 0 28.1674
0.582291 0.00833604 0 28.4226
0.582291 0.00119259 0 28.0237
0.584375 0.00833572 0 28.5079
0.590625 0.00833435 0 28.755
0.590625 0.00119254 0 28.3481
0.592708 0.00833392 0 28.8356
0.582291 0.0011926 0.01 28.0125
0.582291 0.00833598 0.01 28.4133
0.576042 0.00833583 0.01 28.1547
0.590625 0.00119255 0.01 28.336
0.590625 0.00833432 0.01 28.7435
0.584375 0.00833567 0.01 28.4985
0.592708 0.00833391 0.01 28.8216
0.573942 0.0250296 0 28.7003
0.571869 0.0248846 0 28.4443
0.578125 -0.00114366 0 27.6902
0.578125 -0.00309124 0 27.5261
0.576041 -0.00309272 0 27.442
0.582292 -0.00309272 0 27.6923
0.580209 -0.00309124 0 27.6083
0.580209 -0.00114366 0 27.774
0.578093 0.025177 0 28.737
0.576016 0.0251248 0 28.5541
0.582275 0.0254495 0 29.0277
0.58016 0.0253227 0 28.5689
0.586458 -0.00114367 0 28.0235
0.586458 -0.00309125 0 27.8548
0.584375 -0.00309273 0 27.7751
0.590625 -0.00309273 0 28.0127
0.588542 -0.00309125 0 27.9329
0.588542 -0.00114368 0 28.1032
0.586364 0.0254581 0 28.9026
0.584312 0.0254866 0 28.7005
0.590633 0.0248887 0 29.2385
0.588415 0.0252343 0 29.3609
0.588893 0.0264646 0 29.3908
0.594791 -0.00114369 0 28.3398
0.594791 -0.00309125 0 28.1663
0.592708 -0.00309273 0 28.091
0.596875 -0.00309125 0 28.24
0.596875 -0.00114369 0 28.4149
0.592726 0.0247326 0 29.3779
0.551041 0.00833624 0 26.9906
0.557291 0.00833409 0 27.306
0.557292 0.00119249 0 26.9282
0.559375 0.00833412 0 27.414
0.565625 0.00833479 0 27.7182
0.565625 0.00119251 0 27.3202
0.567709 0.00833504 0 27.8136
0.573958 0.00833581 0 28.0812
0.573958 0.00119259 0 27.6835
0.567704 0.0179395 0 28.2534
0.573952 0.0179734 0 28.4363
0.573958 0.0107211 0 28.1947
0.576042 0.0035717 0 27.9153
0.578125 0.00357171 0 28.0001
0.578125 0.00119257 0 27.8556
0.576035 0.017984 0 28.5417
0.582284 0.0180013 0 28.8053
0.582291 0.0107224 0 28.5346
0.576024 0.0229785 0 28.6426
0.578099 0.0230199 0 28.5696
0.578119 0.0205171 0 28.5632
0.584375 0.00357169 0 28.254
0.586458 0.00357164 0 28.3352
0.586459 0.00119255 0 28.188
0.584367 0.0179915 0 28.9008
0.590621 0.0178984 0 29.1402
0.590625 0.0107171 0 28.8695
0.584345 0.0231664 0 28.8504
0.586414 0.0230751 0 29.1308
0.586437 0.0204932 0 29.0621
0.592708 0.0035715 0 28.5774
0.594791 0.00357147 0 28.6545
0.594792 0.0011925 0 28.5036
0.592707 0.0178763 0 29.2209
0.592696 0.0226206 0 29.3663
0.557292 0.0011925 0.01 26.9165
0.557291 0.00833407 0.01 27.2862
0.551041 0.00833618 0.01 26.9767
0.565625 0.00119251 0.01 27.3064
0.565625 0.00833475 0.01 27.6994
0.559375 0.0083341 0.01 27.3933
0.573958 0.00119259 0.01 27.6709
0.573958 0.00833575 0.01 28.067
0.567709 0.008335 0.01 27.7954
0.573958 0.010721 0.01 28.1809
0.573952 0.0179726 0.01 28.4305
0.567704 0.0179389 0.01 28.2207
0.578125 0.00119258 0.01 27.8443
0.578125 0.0035717 0.01 27.9887
0.576042 0.00357169 0.01 27.9029
0.582291 0.0107223 0.01 28.5274
0.582284 0.0180004 0.01 28.8021
0.576035 0.0179831 0.01 28.5319
0.578114 0.0205298 0.01 28.6286
0.578102 0.0230407 0.01 28.6363
0.576024 0.022987 0.01 28.7034
0.586459 0.00119256 0.01 28.1767
0.586458 0.00357164 0.01 28.3244
0.584375 0.00357168 0.01 28.2428
0.590625 0.0107171 0.01 28.8591
0.590621 0.0178981 0.01 29.1245
0.584367 0.0179906 0.01 28.9001
0.586437 0.0204916 0.01 29.1174
0.586411 0.0231199 0.01 29.246
0.584351 0.0231886 0.01 28.8935
0.594792 0.00119251 0.01 28.4902
0.594791 0.00357147 0.01 28.6412
0.592708 0.0035715 0.01 28.5643
0.592707 0.0178762 0.01 29.1899
0.5927 0.0226377 0.01 29.2687
0.553125 -0.00114371 0 26.5634
0.553125 -0.00309131 0 26.4155
0.551041 -0.0030926 0 26.3161
0.557292 -0.00309261 0 26.6134
0.555209 -0.00309131 0 26.5135
0.555209 -0.00114372 0 26.6635
0.561458 -0.00114373 0 26.9622
0.561458 -0.00309131 0 26.8073
0.559375 -0.00309261 0 26.7123
0.565625 -0.00309261 0 26.9958
0.563542 -0.00309131 0 26.9008
0.563542 -0.00114372 0 27.0579
0.569791 -0.00114372 0 27.3389
0.569791 -0.00309131 0 27.1782
0.567708 -0.00309261 0 27.089
0.573959 -0.00309273 0 27.3548
0.571875 -0.00309125 0 27.2659
0.571875 -0.00114367 0 27.4279
0.571856 0.020444 0 28.5614
0.571871 0.022848 0 28.549
0.573942 0.0229232 0 28.5486
0.580191 0.0205658 0 28.739
0.580192 0.0231514 0 28.5903
0.582254 0.0231967 0 29.1381
0.588524 0.0204022 0 29.1549
0.588506 0.0229095 0 29.3215
0.590606 0.0227487 0 29.2617
0.555209 -0.00114359 0.01 26.6543
0.555209 -0.00309047 0.01 26.5061
0.557292 -0.00309177 0.01 26.6043
0.551041 -0.00309176 0.01 26.3092
0.553125 -0.00309047 0.01 26.4088
0.553125 -0.00114358 0.01 26.5551
0.563542 -0.00114359 0.01 27.046
0.563542 -0.00309047 0.01 26.8912
0.565625 -0.00309177 0.01 26.9847
0.559375 -0.00309177 0.01 26.7027
0.561458 -0.00309047 0.01 26.7983
0.561458 -0.00114359 0.01 26.9508
0.571875 -0.00114353 0.01 27.416
0.571875 -0.00309041 0.01 27.2558
0.573959 -0.00309178 0.01 27.3437
0.567708 -0.00309177 0.01 27.0778
0.569791 -0.00309047 0.01 27.1682
0.569791 -0.00114358 0.01 27.3266
0.573941 0.0229322 0.01 28.4949
0.571866 0.0228715 0.01 28.5044
0.57186 0.020457 0.01 28.5121
0.571866 0.0249236 0.01 28.4847
0.573942 0.0250429 0.01 28.429
0.580209 -0.00114352 0.01 27.7634
0.580209 -0.00309041 0.01 27.5988
0.582292 -0.00309178 0.01 27.6816
0.576041 -0.00309178 0.01 27.4311
0.578125 -0.00309041 0.01 27.5165
0.578125 -0.00114352 0.01 27.6795
0.582258 0.0231803 0.01 29.0001
0.580188 0.0231388 0.01 28.6478
0.580191 0.0205637 0.01 28.7605
0.580165 0.0253423 0.01 28.6789
0.582266 0.0254528 0.01 28.7761
0.576014 0.025138 0.01 28.8133
0.578092 0.0252146 0.01 28.7523
0.588542 -0.00114354 0.01 28.0921
0.588542 -0.00309041 0.01 27.9229
0.590625 -0.00309179 0.01 28.0013
0.584375 -0.00309178 0.01 27.7645
0.586458 -0.00309041 0.01 27.8451
0.586458 -0.00114353 0.01 28.0127
0.590606 0.0227486 0.01 29.1838
0.5885 0.02293 0.01 29.3778
0.588524 0.0204013 0.01 29.175
0.588891 0.0265043 0.01 29.2786
0.588419 0.0252804 0.01 29.3735
0.590628 0.024901 0.01 29.0878
0.584305 0.0255289 0.01 28.9798
0.586363 0.0255338 0.01 28.9612
0.596875 -0.00114355 0.01 28.4016
0.596875 -0.00309041 0.01 28.2281
0.592708 -0.00309179 0.01 28.0792
0.594791 -0.00309041 0.01 28.1551
0.594791 -0.00114354 0.01 28.327
0.592723 0.0247675 0.01 29.2681
0.578125 0.00833593 0 28.2511
0.578125 0.00595326 0 28.1335
0.576042 0.00595322 0 28.049
0.582291 0.00595326 0 28.3034
0.580209 0.00595328 0 28.2174
0.580208 0.00833619 0 28.3352
0.580208 0.00119257 0 27.9395
0.580209 0.00357172 0 28.0845
0.582291 0.00357171 0 28.1698
0.586458 0.00833551 0 28.5899
0.586458 0.00595306 0 28.4691
0.584375 0.00595319 0 28.3878
0.590625 0.00595272 0 28.6322
0.588541 0.00595289 0 28.5505
0.588541 0.00833488 0 28.6723
0.588541 0.00119254 0 28.2679
0.588541 0.00357159 0 28.4161
0.590625 0.00357154 0 28.4976
0.594791 0.00833366 0 28.9145
0.594791 0.0059525 0 28.7902
0.592708 0.00595259 0 28.7121
0.596875 0.00595246 0 28.8679
0.596875 0.00833354 0 28.9938
0.596875 0.00119249 0 28.579
0.596875 0.00357145 0 28.7312
0.582291 0.0035717 0.01 28.1588
0.580208 0.0035717 0.01 28.0734
0.580208 0.00119258 0.01 27.9284
0.580208 0.00833613 0.01 28.3255
0.580209 0.00595326 0.01 28.2067
0.582291 0.00595323 0.01 28.2931
0.576042 0.0059532 0.01 28.0364
0.578125 0.00595324 0.01 28.1219
0.578125 0.00833587 0.01 28.2399
0.590625 0.00357154 0.01 28.4857
0.588541 0.00357159 0.01 28.4054
0.588541 0.00119255 0.01 28.2566
0.588541 0.00833484 0.01 28.6626
0.588541 0.00595288 0.01 28.5405
0.590625 0.00595271 0.01 28.6211
0.584375 0.00595316 0.01 28.3776
0.586458 0.00595304 0.01 28.4592
0.586458 0.00833546 0.01 28.5806
0.596875 0.00357146 0.01 28.7169
0.596875 0.0011925 0.01 28.5651
0.596875 0.00833354 0.01 28.9755
0.596875 0.00595246 0.01 28.8522
0.592708 0.00595258 0.01 28.6996
0.594791 0.0059525 0.01 28.7762
0.594791 0.00833365 0.01 28.8982
0.101093 -0.00919501 0 -7.49507
0.109385 -0.00876016 0 -4.17674
0.117693 -0.00822008 0 -1.89399
0.125998 -0.00774877 0 -0.93481
0.134271 -0.00743849 0 -0.416224
0.142702 -0.00798999 0 1.25901
0.151032 -0.00777377 0 1.79655
0.15934 -0.00740347 0 2.52396
0.16766 -0.00718291 0 2.84188
0.176018 -0.0076363 0 3.77655
0.184371 -0.00773988 0 4.55348
0.192684 -0.00761805 0 5.16979
0.201019 -0.00747914 0 5.62154
0.209366 -0.00775086 0 5.99777
0.217709 -0.00781607 0 6.83808
0.226037 -0.00774777 0 7.42711
0.234365 -0.00767837 0 8.03329
0.242699 -0.00770513 0 8.56276
0.243053 0.000406878 0 9.58646
0.251052 0.000560668 0 9.08482
0.1011 -0.00917048 0.01 -6.73788
0.109395 -0.00873816 0.01 -3.36665
0.117702 -0.00820226 0.01 -0.993357
0.126007 -0.00773453 0.01 -0.102813
0.134278 -0.00743684 0.01 0.499676
0.142732 -0.00800059 0.01 1.31164
0.151044 -0.00775151 0.01 1.99657
0.159347 -0.00741766 0.01 2.64936
0.167674 -0.00718652 0.01 3.1538
0.176018 -0.00763619 0.01 3.87802
0.184371 -0.00773948 0.01 4.73249
0.19269 -0.00760616 0.01 5.31449
0.201025 -0.00749327 0.01 5.80655
0.209366 -0.00775008 0.01 6.28008
0.217709 -0.00781477 0.01 6.89865
0.226037 -0.0077472 0.01 7.38119
0.234366 -0.0076789 0.01 7.91195
0.242699 -0.00770661 0.01 8.41439
0.243052 0.000433816 0.01 8.72428
0.251056 0.000558977 0.01 10.0482
0.0490424 -0.0108272 0 -8.65644
0.0508621 -0.0108253 0 -4.96703
0.0991799 -0.00934788 0 -9.80336
0.107352 -0.00884906 0 -5.04458
0.115657 -0.008354 0 -3.48326
0.123959 -0.00786462 0 -2.15757
0.132264 -0.00745458 0 -1.23137
0.140649 -0.00797115 0 0.329766
0.148968 -0.00785052 0 1.704
0.157287 -0.00749534 0 2.18917
0.165587 -0.00720717 0 3.24306
0.173912 -0.00744952 0 3.82186
0.182286 -0.00776731 0 4.38627
0.190609 -0.00762927 0 4.96631
0.198946 -0.0075188 0 5.5931
0.207644 -0.00210182 0 5.63967
0.207267 -0.00765824 0 6.046
0.209519 -0.00221416 0 5.02123
0.215651 -0.00194939 0 7.11882
0.215621 -0.00782621 0 6.80125
0.217738 -0.00183307 0 6.85416
0.22395 -0.00146597 0 7.15671
0.22395 -0.00776587 0 7.29368
0.226043 -0.00134317 0 7.34933
0.232247 -0.000976902 0 8.01882
0.232279 -0.00769406 0 7.88262
0.234318 -0.000808545 0 8.05321
0.240509 -0.00051347 0 8.49369
0.24061 -0.0076827 0 8.46601
0.242594 -0.000824798 0 9.81341
0.248967 -0.00125271 0 8.68792
0.248953 -0.00770848 0 8.70317
0.249009 0.000444598 0 9.07884
0.257303 0.000919451 0 9.64449
0.0490354 -0.0108178 0.01 -10.6175
0.050926 -0.0110853 0.01 -6.08353
0.0991641 -0.00931944 0.01 -12.1159
0.107341 -0.00882798 0.01 -4.89952
0.115645 -0.00833542 0.01 -3.10347
0.123947 -0.00784961 0.01 -1.85293
0.132255 -0.00745328 0.01 -0.909081
0.140646 -0.00798151 0.01 0.19412
0.148952 -0.0078277 0.01 1.4443
0.157265 -0.00751084 0.01 2.26436
0.165587 -0.00720733 0.01 2.91224
0.173903 -0.00742945 0.01 4.06697
0.182286 -0.00776661 0.01 4.45161
0.190609 -0.00763015 0.01 5.02875
0.198936 -0.00751944 0.01 5.59749
0.207267 -0.00765835 0.01 6.29167
0.207643 -0.00206472 0.01 6.59545
0.215622 -0.00782484 0.01 6.82908
0.215652 -0.00193307 0.01 7.93111
0.209519 -0.00217962 0.01 5.32029
0.22395 -0.00776516 0.01 7.25123
0.223954 -0.00146724 0.01 7.95319
0.217737 -0.00182164 0.01 6.35056
0.232279 -0.00769441 0.01 7.77636
0.23225 -0.000975793 0.01 8.64399
0.226039 -0.00134427 0.01 6.67447
0.24061 -0.0076837 0.01 8.30626
0.24051 -0.00050965 0.01 8.74899
0.234323 -0.000824955 0.01 7.13477
0.248953 -0.00770863 0.01 8.66072
0.248967 -0.00127208 0.01 8.77097
0.242587 -0.000801247 0.01 9.18561
0.249004 0.000443278 0.01 8.6411
0.257297 0.000937908 0.01 8.90314
0.251039 -0.00768908 0 8.87458
0.259353 -0.0076036 0 10.4737
0.259354 0.00104857 0 9.46015
0.267648 0.00152319 0 9.75468
0.275901 0.00156015 0 10.5291
0.284378 0.00113572 0 10.4604
0.292684 0.00143044 0 11.0214
0.301005 0.00169748 0 11.4994
0.309343 0.00131469 0 11.8506
0.317702 0.00129626 0 12.5762
0.326025 0.0014339 0 12.927
0.33435 0.00150064 0 13.3537
0.342703 0.00124079 0 13.6529
0.351037 0.00125809 0 14.5514
0.359365 0.00131653 0 15.1287
0.367699 0.00126603 0 15.6046
0.36806 0.00983151 0 16.1568
0.37604 0.0012077 0 15.9653
0.376061 0.0100133 0 16.0692
0.384372 0.00123079 0 16.5001
0.38435 0.0106087 0 16.545
0.392704 0.00124091 0 17.0363
0.392636 0.0110897 0 16.8679
0.40104 0.00120163 0 17.4953
0.401054 0.0105018 0 16.9301
0.409374 0.00120106 0 18.0575
0.409368 0.0107882 0 18.0835
0.417707 0.00121028 0 18.6168
0.417675 0.0111174 0 18.7168
0.42604 0.00120297 0 19.1552
0.425975 0.011015 0 19.9287
0.434375 0.00119364 0 19.675
0.434364 0.0107562 0 20.0369
0.442708 0.00119964 0 20.2197
0.442687 0.0109001 0 20.4554
0.451041 0.00121353 0 20.7581
0.451017 0.0110045 0 21.0155
0.459374 0.0012282 0 21.2981
0.459371 0.0107585 0 21.3961
0.467707 0.00124459 0 21.8686
0.467704 0.0107775 0 22.1714
0.476041 0.00121869 0 22.3679
0.476032 0.0108386 0 22.7061
0.484375 0.00119596 0 22.8006
0.484364 0.010829 0 23.2141
0.492708 0.00119304 0 23.2886
0.492707 0.0107364 0 23.5864
0.492737 0.0195073 0 23.6522
0.501042 0.00119307 0 23.8179
0.501039 0.0107518 0 24.1929
0.501021 0.020069 0 24.424
0.509375 0.00119327 0 24.3331
0.509371 0.0107689 0 24.7156
0.509317 0.0205648 0 24.7048
0.517708 0.00119281 0 24.824
0.517706 0.0107338 0 25.2005
0.517704 0.0201406 0 25.0512
0.526041 0.00119257 0 25.3016
0.526041 0.0107215 0 25.7146
0.526044 0.0201611 0 25.9755
0.534375 0.00119267 0 25.764
0.534374 0.0107304 0 26.2107
0.534357 0.0204546 0 26.482
0.542708 0.00119272 0 26.2041
0.542707 0.0107359 0 26.6669
0.542681 0.020781 0 26.9339
0.551041 0.0107221 0 27.087
0.551013 0.020336 0 27.4112
0.559375 0.0107163 0 27.529
0.559365 0.0202704 0 27.9762
0.567699 0.0204213 0 28.3408
0.251039 -0.00768915 0.01 8.86233
0.259353 -0.00760366 0.01 10.4764
0.259362 0.00105841 0.01 10.2821
0.267646 0.00156159 0.01 10.4392
0.275918 0.00155904 0.01 11.183
0.284378 0.001143 0.01 10.7753
0.292689 0.00143669 0.01 11.1795
0.301006 0.00169893 0.01 11.5615
0.309348 0.00133215 0.01 11.7344
0.317702 0.00129567 0.01 12.6172
0.326025 0.00143218 0.01 12.9939
0.33435 0.00149862 0.01 13.445
0.342704 0.00124073 0.01 13.6358
0.351037 0.00125771 0.01 14.4812
0.359365 0.00131575 0.01 15.0399
0.3677 0.00126553 0.01 15.548
0.368058 0.00986982 0.01 15.9154
0.37604 0.00120756 0.01 15.984
0.376066 0.0100695 0.01 16.756
0.384372 0.00123045 0.01 16.5146
0.384355 0.010609 0.01 17.0709
0.392704 0.00124049 0.01 17.0363
0.392627 0.0111439 0.01 17.3741
0.401041 0.00120159 0.01 17.4928
0.401061 0.0105192 0.01 17.2146
0.409374 0.00120091 0.01 18.0675