# p  FACE_DATA 11666
# x y z  p
0.0596589 0.0485184 0.00125 -12.4307
0.101562 0.0658665 0.00124988 -41.3189
0.134326 0.0763298 0.00125007 -52.7256
0.0156349 -0.00987769 0.00124999 -73.8937
0.00986925 -0.00870838 0.00875 -111.132
0.015635 -0.00987629 0.00874999 -74.2374
0.0241069 -0.0106137 0.00124999 -56.1338
0.0176922 -0.0101479 0.00874997 -84.7271
0.0241084 -0.0106006 0.00875 -54.0543
0.00763978 -0.00781489 0.00875 -83.3781
0.00249986 0.007756 0.00124998 92.4455
0.00249976 0.00775583 0.00875 92.0031
0.0100541 0.0171346 0.00125 59.1429
0.0100541 0.0171346 0.00875 58.7397
0.0346937 0.0353866 0.00125 11.2477
0.0346936 0.0353866 0.00875 10.8227
0.0515461 0.0446016 0.00125 -10.1013
0.0515461 0.0446016 0.00875 -10.4165
0.0596591 0.0485182 0.00875 -12.6705
0.0739278 0.0550046 0.00124997 -24.1241
0.0739295 0.0549989 0.00875 -25.0641
0.0761697 0.0559647 0.00125002 -23.2425
0.0761716 0.055959 0.00875 -21.9951
0.0992795 0.0650143 0.00125006 -37.2081
0.0992798 0.0650141 0.00875 -37.3631
0.124167 0.0734248 0.0012499 -57.3592
0.124168 0.0734247 0.00875 -57.5313
0.126 0.0739553 0.0012501 -58.3456
0.126001 0.0739544 0.00875 -58.5223
0.00348497 -0.00540105 0.00375 -99.7704
0.00348498 -0.00540103 0.00125 -94.7264
0.00390561 0.00991142 0.00125001 87.8058
0.00390554 0.00991136 0.00375001 106.314
0.0123385 0.0192647 0.00125 53.1212
0.0123385 0.0192647 0.00375 62.5162
0.0285313 0.0316828 0.00375 13.9473
0.0285313 0.0316828 0.00125 12.0512
0.0451676 0.0412112 0.00375 2.07822
0.0618131 0.0495539 0.00374999 -13.5458
0.0596589 0.0485185 0.00375001 -11.6774
0.0783681 0.0569126 0.00125 -27.0521
0.0783681 0.0569126 0.00374999 -26.7129
0.0867428 0.0603561 0.00375001 -36.5063
0.101562 0.0658665 0.00375 -41.0319
0.103292 0.0664919 0.00124992 -45.3974
0.103292 0.066492 0.00374999 -45.2299
0.111447 0.0692183 0.00375004 -45.5143
0.134325 0.0763333 0.00374992 -53.1869
0.136722 0.0770123 0.00124995 -49.3854
0.136721 0.0770159 0.00375005 -51.847
0.145051 0.0793848 0.00375008 -55.7923
0.0156347 -0.00987844 0.00375 -93.8049
0.0136076 -0.00949862 0.00125 -79.9476
0.0136076 -0.00949862 0.00375 -102.604
0.0176912 -0.0101618 0.00374995 -103.676
0.0197529 -0.0103145 0.00125003 -71.342
0.0197524 -0.0103197 0.00375004 -90.1851
0.0241068 -0.0106201 0.00374998 -69.6427
0.0217146 -0.0104413 0.00125002 -60.3877
0.0217143 -0.0104492 0.00375006 -76.889
0.0282211 -0.0108018 0.00375 -67.943
0.0302103 -0.0108156 0.00375 -59.3575
0.0076396 -0.0078153 0.00375001 -100.899
0.00547024 -0.00679722 0.00125 -123.305
0.00143952 -0.00309457 0.00125002 -42.341
0.00249975 0.00775596 0.00374998 113.894
0.0058448 0.0124572 0.00375 92.4922
0.0079031 0.0148477 0.00375 84.3496
0.0100541 0.0171346 0.00375 70.0194
0.0141149 0.0208497 0.00374999 59.7815
0.0201896 0.0257898 0.00125 33.7234
0.0326383 0.0341513 0.00375 17.5747
0.0346936 0.0353866 0.00375 13.9285
0.0367466 0.0366202 0.00125 7.59814
0.0367466 0.0366202 0.00375 9.36242
0.0515461 0.0446016 0.00374999 -8.90288
0.0531428 0.0453811 0.00125 -12.3963
0.0639772 0.0505932 0.00375 -16.1968
0.0700375 0.053339 0.00125 -21.2559
0.0739264 0.0550072 0.00374994 -23.7277
0.0722766 0.0543039 0.00125 -22.349
0.0761684 0.0559673 0.00375005 -23.8771
0.0805723 0.0578565 0.00125 -29.3687
0.0805723 0.0578565 0.00375 -29.2157
0.0930067 0.0626838 0.00125 -33.7682
0.0952866 0.0635344 0.00125 -35.8591
0.099279 0.0650161 0.00375 -37.6141
0.0969659 0.0641545 0.00125 -37.3488
0.105094 0.0670986 0.0012501 -46.856
0.105092 0.0671034 0.0037499 -46.7609
0.113773 0.0699913 0.00374998 -43.9881
0.120117 0.072101 0.00374998 -48.3871
0.120118 0.0720993 0.00125 -46.8307
0.124167 0.0734249 0.00375 -58.2099
0.12242 0.0728681 0.00125 -51.5206
0.125998 0.0739606 0.00374987 -58.2776
0.128392 0.0746367 0.00125 -48.092
0.139046 0.0776819 0.00375 -55.3614
0.0156348 -0.00987736 0.00625 -93.9816
0.0136075 -0.00949862 0.00875 -80.1326
0.0136075 -0.00949862 0.00625 -102.737
0.0176916 -0.0101555 0.00624994 -104.178
0.0197534 -0.0103035 0.00875 -70.0338
0.0197528 -0.0103122 0.00625 -89.2746
0.0241076 -0.0106114 0.00625002 -68.6407
0.0217161 -0.0104253 0.00874999 -61.3964
0.0217152 -0.0104383 0.00625004 -77.5081
0.0282212 -0.0108018 0.00624999 -68.1251
0.0302103 -0.0108155 0.00625 -59.3857
0.00348497 -0.00540105 0.00625 -100.014
0.00348498 -0.00540103 0.00875 -95.011
0.00763959 -0.00781529 0.00625 -101.008
0.00547019 -0.00679721 0.00875 -123.419
0.00249971 0.0077559 0.00624999 113.464
0.00390549 0.00991128 0.00625 105.951
0.00584477 0.0124572 0.00625 92.1856
0.00790308 0.0148476 0.00875 69.9253
0.0100541 0.0171346 0.00625001 69.7428
0.0123385 0.0192647 0.00624999 62.2217
0.0141149 0.0208497 0.00625001 59.4422
0.0158688 0.0224099 0.00874999 44.4842
0.0182596 0.0243548 0.00874999 32.582
0.0201895 0.0257898 0.00875 33.2224
0.0285313 0.0316828 0.00625 13.6949
0.0285313 0.0316829 0.00875 11.614
0.0326383 0.0341513 0.00875 14.6754
0.0346936 0.0353866 0.00625 13.669
0.0367466 0.0366202 0.00875 7.20511
0.0367466 0.0366202 0.00625 9.14509
0.0409383 0.038949 0.00625 4.12799
0.0451676 0.0412112 0.00625 1.87372
0.0451676 0.0412112 0.00875 0.72369
0.0515461 0.0446016 0.00625 -9.07372
0.0531429 0.0453804 0.00875 -12.7661
0.0553392 0.0464351 0.00875 -7.9808
0.0618131 0.0495539 0.00624999 -13.7045
0.059659 0.0485184 0.00625 -11.8072
0.0639771 0.0505932 0.00625 -16.3405
0.0739276 0.0550035 0.00624998 -24.3005
0.0722765 0.0543039 0.00875 -22.7137
0.0761697 0.0559636 0.00625003 -23.3316
0.0867429 0.060356 0.00625 -36.5531
0.0930069 0.0626832 0.00875001 -33.7506
0.0952867 0.0635344 0.00875 -36.0719
0.0992791 0.065016 0.00625 -37.7019
0.096966 0.0641543 0.00875 -37.5911
0.107436 0.0678759 0.00625005 -39.8144
0.111447 0.0692181 0.00624994 -45.8828
0.113773 0.0699911 0.00625004 -43.9858
0.120117 0.0721009 0.00625003 -48.4281
0.124167 0.0734248 0.00625009 -58.298
0.122419 0.0728681 0.00875 -51.6584
0.125999 0.0739601 0.00624999 -58.3546
0.128392 0.074636 0.00875 -48.0412
0.128391 0.0746415 0.00624997 -50.159
0.139047 0.0776819 0.00625 -55.6956
0.145051 0.0793845 0.00625001 -55.7439
0.00986926 -0.00870838 0.00124999 -111.021
0.0076398 -0.00781489 0.00125 -83.2441
0.0176917 -0.0101574 0.00125007 -84.1074
0.000200385 0.00101878 0.00124999 65.9879
0.0265126 0.0304203 0.00125 15.5726
0.0409383 0.038949 0.00125002 3.27545
0.0430512 0.0400793 0.00124999 3.01229
0.0844473 0.0594811 0.00125001 -39.2602
0.109733 0.0686517 0.00125 -43.1956
0.142658 0.0786991 0.00125 -56.9346
0.0264126 -0.0107599 0.00124996 -60.4476
0.0264128 -0.0107599 0.00875 -61.0566
0.00030057 -0.000910135 0.00124996 1.54909
0.000300479 -0.00090986 0.00875 0.806622
0.00143944 -0.00309431 0.00875 -42.908
0.000200372 0.00101871 0.00875 65.3315
0.0245666 0.0290269 0.00125 25.0739
0.0220896 0.0271946 0.00125 32.0356
0.0245669 0.0290265 0.00875 24.6815
0.0220899 0.0271942 0.00875 31.5493
0.0265126 0.0304203 0.00875 15.1163
0.0409384 0.0389488 0.00875 2.93639
0.0430512 0.0400793 0.00875 2.62407
0.0574973 0.0474804 0.00125 -10.8684
0.055339 0.0464357 0.00125 -7.79367
0.0574975 0.0474802 0.00875 -11.2073
0.082793 0.0588075 0.00124999 -32.5458
0.082793 0.0588075 0.00875 -32.7153
0.0844474 0.0594808 0.00875 -39.4398
0.107436 0.0678775 0.00124998 -38.6719
0.101562 0.0658665 0.00875 -41.688
0.107439 0.067868 0.00875 -35.8421
0.109734 0.0686517 0.00875 -44.3434
0.132483 0.0758129 0.00125 -52.4802
0.132483 0.0758129 0.00875 -52.8322
0.134327 0.0763232 0.00875 -53.9543
0.140815 0.0781855 0.00125 -54.3932
0.140816 0.0781855 0.00875 -54.8812
0.142658 0.0786984 0.00875 -57.1515
0.00986924 -0.00870838 0.00375 -138.021
0.011654 -0.00912788 0.00125001 -105.456
0.0116539 -0.00912788 0.00374999 -132.165
0.000200379 0.00101875 0.00374999 104.424
0.0013868 0.00543825 0.00125 95.2521
0.000586819 0.00298345 0.00125 83.2949
0.000586809 0.0029834 0.00375 117.129
0.0158685 0.0224104 0.00124999 44.9482
0.0182592 0.0243553 0.00125003 32.9641
0.0158681 0.0224108 0.00375001 52.4417
0.0182589 0.0243556 0.00374999 37.7321
0.0265126 0.0304203 0.00374999 19.0178
0.0430512 0.0400793 0.00375 4.33084
0.0409382 0.0389491 0.00375 4.3055
0.0451676 0.0412112 0.00125 1.07943
0.0618131 0.0495539 0.00125 -14.3179
0.0700363 0.0533415 0.00375 -21.6308
0.0677828 0.0523723 0.00125 -27.8585
0.0677816 0.0523749 0.00374999 -25.9271
0.0844463 0.0594837 0.00375001 -38.1199
0.0867438 0.0603536 0.00125 -36.1372
0.109733 0.0686517 0.00375 -44.6483
0.107435 0.0678823 0.00375006 -41.2572
0.111448 0.0692157 0.00125 -44.3066
0.117778 0.0713216 0.00125 -47.2168
0.117778 0.0713233 0.00375003 -47.4122
0.142656 0.0787041 0.00374996 -57.1028
0.145053 0.0793798 0.00125 -53.6808
0.0264127 -0.0107599 0.00374998 -73.2059
0.0282212 -0.0108018 0.00125 -57.4812
0.0302103 -0.0108155 0.00125 -50.9531
0.00547002 -0.00679765 0.00374999 -145.004
0.00143948 -0.00309443 0.00375002 -29.1277
0.000300522 -0.00090999 0.00374997 30.9096
0.00138673 0.00543826 0.00375 121.502
0.00584483 0.0124572 0.00125 77.4862
0.00790312 0.0148477 0.00125 70.3255
0.014115 0.0208496 0.00125 49.7776
0.0201895 0.0257898 0.00374999 39.3414
0.0220894 0.0271949 0.00375001 36.9545
0.0245664 0.0290271 0.00375 29.6034
0.0305852 0.0329173 0.00375 18.1475
0.0326383 0.0341513 0.00125 15.0943
0.0305852 0.0329173 0.00125 15.6756
0.0388237 0.0378181 0.00124998 0.550999
0.0388236 0.0378182 0.00375 1.69897
0.0472819 0.042342 0.00375 -0.49488
0.0493989 0.0434742 0.00125 -4.68778
0.0493989 0.0434743 0.00375001 -3.57965
0.0472819 0.042342 0.00125 -1.57487
0.053141 0.0453847 0.00374996 -11.1929
0.0553372 0.0464394 0.00375002 -8.08681
0.0574973 0.0474805 0.00374999 -9.97839
0.0639772 0.0505932 0.00125 -16.9428
0.0661609 0.0516418 0.00125 -20.7115
0.0661609 0.0516419 0.00375 -19.6155
0.0722765 0.0543039 0.00374998 -22.0767
0.082793 0.0588075 0.00375 -32.4155
0.0890204 0.0612055 0.00374999 -33.7533
0.0906999 0.0618265 0.00125 -34.5169
0.0906997 0.0618269 0.00375 -34.1407
0.0890204 0.0612055 0.00125 -34.0896
0.0930065 0.0626842 0.00375001 -34.2138
0.0952866 0.0635343 0.00374999 -36.0886
0.0969653 0.0641562 0.00375 -37.1461
0.113774 0.0699888 0.00125 -42.2299
0.116073 0.0707587 0.00125 -45.7967
0.116073 0.0707587 0.00375 -46.0603
0.12242 0.0728681 0.00375 -52.7427
0.128391 0.0746419 0.00375006 -50.1689
0.132483 0.0758129 0.00375 -52.8303
0.130713 0.075309 0.00125 -52.8166
0.130714 0.075309 0.00375 -52.5697
0.140816 0.0781856 0.00375 -55.8373
0.139046 0.0776818 0.00125 -53.7356
0.147379 0.080025 0.00374988 -64.3572
0.149162 0.0804761 0.00125 -59.3124
0.149162 0.080476 0.00375 -60.0133
0.147379 0.0800251 0.00125 -64.6462
0.0264128 -0.0107599 0.00625001 -73.3624
0.0282212 -0.0108017 0.00875 -58.0886
0.0302103 -0.0108155 0.00875 -51.1363
0.00986925 -0.00870838 0.00625 -138.026
0.0116539 -0.00912788 0.00875 -105.565
0.0116539 -0.00912788 0.00625 -132.185
0.00547 -0.00679764 0.00625 -145.135
0.00143945 -0.00309434 0.00625001 -29.5815
0.000300489 -0.000909893 0.00624999 30.2929
0.000200374 0.00101872 0.00625 103.766
0.00138678 0.00543818 0.00875 94.7198
0.000586798 0.00298335 0.00875 82.6696
0.00138672 0.00543824 0.00625 121.009
0.000586801 0.00298336 0.00625 116.558
0.00390549 0.00991123 0.00875 87.3851
0.00584478 0.0124572 0.00875 77.1043
0.00790308 0.0148477 0.00624999 84.0433
0.0123384 0.0192647 0.00875 52.6681
0.0158684 0.0224104 0.00625 52.1266
0.0141149 0.0208496 0.00875 49.2986
0.0182593 0.0243552 0.00625 37.5106
0.0201895 0.0257898 0.00624999 39.0262
0.0220896 0.0271946 0.00625001 36.6577
0.0245666 0.0290269 0.00625 29.3708
0.0265127 0.0304203 0.00625 18.7372
0.0305852 0.0329173 0.00625 17.867
0.0326383 0.0341513 0.00625 17.3264
0.0305852 0.0329173 0.00875 15.2188
0.0388238 0.0378178 0.00875 0.157056
0.0388237 0.0378181 0.00625 1.47478
0.0430512 0.0400793 0.00625 4.10688
0.0472819 0.042342 0.00625 -0.702163
0.049399 0.0434743 0.00875 -5.01622
0.049399 0.0434742 0.00625 -3.76105
0.0472819 0.042342 0.00875 -1.92434
0.053141 0.0453844 0.00625 -11.38
0.0553373 0.0464391 0.00625001 -8.18824
0.0574974 0.0474803 0.00625 -10.1595
0.0618132 0.0495539 0.00875 -14.6027
0.0639771 0.0505931 0.00875 -17.2046
0.0661609 0.0516419 0.00874999 -20.9793
0.066161 0.0516419 0.00625 -19.7626
0.0700363 0.0533413 0.00625001 -21.7665
0.0677828 0.052372 0.00875001 -28.1505
0.0677817 0.0523748 0.00624999 -26.062
0.0700375 0.0533386 0.00875 -21.4984
0.0722764 0.0543039 0.00625 -22.2949
0.0783681 0.0569126 0.00875 -27.6086
0.0783681 0.0569126 0.00625 -26.8947
0.0805723 0.0578565 0.00875 -29.8213
0.0805723 0.0578565 0.00625 -29.4194
0.082793 0.0588075 0.00625 -32.5114
0.0844464 0.0594835 0.00624997 -38.2043
0.0867439 0.0603532 0.00875 -36.2253
0.0890205 0.0612055 0.00625 -33.852
0.0907001 0.0618259 0.00874999 -34.7746
0.0906999 0.0618264 0.00625 -34.2894
0.0890204 0.0612055 0.00875 -34.2766
0.0930067 0.0626838 0.00625 -34.1849
0.0952866 0.0635343 0.00625 -36.187
0.0969653 0.0641562 0.00625 -37.2693
0.101562 0.0658665 0.00625 -41.2558
0.103292 0.0664918 0.00874999 -45.8235
0.103292 0.0664919 0.00625 -45.5005
0.105096 0.0670889 0.00875001 -48.5344
0.105094 0.067097 0.00624998 -47.7893
0.109733 0.0686517 0.00625 -45.0611
0.111447 0.0692154 0.00875 -45.0789
0.113773 0.0699884 0.00875 -42.1817
0.116073 0.0707587 0.00875 -45.9792
0.116073 0.0707587 0.00625 -46.1313
0.117778 0.0713215 0.00875 -47.4335
0.117778 0.0713233 0.00624996 -47.5099
0.120118 0.0720992 0.00875 -46.9068
0.12242 0.0728681 0.00625 -52.809
0.132483 0.0758129 0.00625 -53.0306
0.130713 0.075309 0.00875 -53.1796
0.130713 0.0753091 0.00625 -52.7572
0.134326 0.0763288 0.00624998 -53.9655
0.136724 0.0770058 0.00875 -47.3154
0.136722 0.0770114 0.00625004 -50.7459
0.140816 0.0781855 0.00625 -56.0865
0.139046 0.0776819 0.00875 -54.5836
0.142656 0.0787038 0.00625 -57.2214
0.145053 0.0793791 0.00875 -53.5684
0.14738 0.0800251 0.00625 -64.4137
0.149162 0.080476 0.00875 -59.4886
0.149162 0.0804761 0.00625 -60.0899
0.14738 0.080025 0.00875 -64.7962
0.0490523 -0.010642 0.00125001 -17.7726
0.049052 -0.010642 0.00874999 -19.7798
0.0490521 -0.010642 0.00375001 -27.2598
0.046909 -0.0106865 0.00374992 -25.8287
0.049052 -0.010642 0.00625001 -34.9207
0.0469091 -0.0106865 0.00875 -18.7881
0.0469091 -0.0106865 0.00624997 -28.2014
0.551041 0.00119257 0 23.0921
0.559375 0.00119249 0 23.6358
0.567708 0.00119252 0 24.2507
0.567708 0.0107194 0 24.5313
0.576042 0.00119259 0 24.9231
0.576041 0.0107218 0 25.2652
0.576021 0.0204946 0 25.5048
0.584375 0.00119258 0 25.6258
0.584374 0.0107217 0 26.0407
0.584355 0.0205525 0 26.2748
0.592709 0.00119253 0 26.3337
0.592708 0.0107159 0 26.8114
0.592705 0.0202704 0 27.0982
0.551041 0.00119257 0.01 23.1928
0.559375 0.0011925 0.01 23.7052
0.567708 0.00119252 0.01 24.2995
0.567708 0.0107193 0.01 24.5524
0.576042 0.0011926 0.01 24.9507
0.576041 0.0107217 0.01 25.2865
0.576024 0.020507 0.01 25.5012
0.584375 0.00119259 0.01 25.6407
0.584374 0.0107215 0.01 26.0584
0.584355 0.0205506 0.01 26.2846
0.592709 0.00119254 0.01 26.3438
0.592708 0.0107159 0.01 26.8076
0.592705 0.0202704 0.01 27.0314
0.551041 -0.00114394 0 22.9699
0.557292 -0.00114396 0 23.3549
0.559375 -0.00114396 0 23.4992
0.565625 -0.00114396 0 23.9479
0.567708 -0.00114396 0 24.1088
0.573959 -0.00114412 0 24.5983
0.573955 0.0204681 0 25.1157
0.576041 -0.00114412 0 24.7708
0.582292 -0.00114412 0 25.2859
0.582273 0.0205724 0 26.1543
0.584375 -0.00114412 0 25.4616
0.590625 -0.00114413 0 25.9834
0.590744 0.0263698 0 27.0579
0.590616 0.0203182 0 26.9313
0.592708 -0.00114414 0 26.1583
0.592779 0.026369 0 27.3713
0.557292 -0.00114383 0.01 23.4289
0.551041 -0.0011438 0.01 23.0699
0.565625 -0.00114382 0.01 24.004
0.559375 -0.00114383 0.01 23.5681
0.573959 -0.00114387 0.01 24.6313
0.567708 -0.00114382 0.01 24.1569
0.57395 0.0204816 0.01 25.1708
0.582292 -0.00114387 0.01 25.2994
0.576041 -0.00114387 0.01 24.7971
0.582274 0.0205703 0.01 26.0901
0.590625 -0.00114389 0.01 25.9935
0.584375 -0.00114387 0.01 25.4756
0.590616 0.0203179 0.01 26.8457
0.590748 0.0263839 0.01 27.0685
0.592708 -0.00114389 0.01 26.1667
0.592771 0.0263899 0.01 27.172
0.576042 0.00833589 0 25.2017
0.582291 0.00833604 0 25.7745
0.582291 0.00119259 0 25.449
0.584375 0.00833572 0 25.9575
0.590625 0.00833435 0 26.5322
0.590625 0.00119254 0 26.1615
0.592708 0.00833392 0 26.7147
0.582291 0.0011926 0.01 25.4634
0.582291 0.00833598 0.01 25.7861
0.576042 0.00833583 0.01 25.214
0.590625 0.00119255 0.01 26.1692
0.590625 0.00833432 0.01 26.5252
0.584375 0.00833567 0.01 25.9668
0.592708 0.00833391 0.01 26.7071
0.573942 0.0250296 0 25.3971
0.571869 0.0248846 0 25.089
0.578125 -0.00114366 0 24.9443
0.578125 -0.00309124 0 24.8185
0.576041 -0.00309272 0 24.6489
0.582292 -0.00309272 0 25.1557
0.580209 -0.00309124 0 24.9859
0.580209 -0.00114366 0 25.1148
0.578093 0.025177 0 25.7007
0.576016 0.0251248 0 25.4199
0.582275 0.0254495 0 26.2257
0.58016 0.0253227 0 25.6898
0.586458 -0.00114367 0 25.6377
0.586458 -0.00309125 0 25.5023
0.584375 -0.00309273 0 25.3288
0.590625 -0.00309273 0 25.8445
0.588542 -0.00309125 0 25.673
0.588542 -0.00114368 0 25.811
0.586364 0.0254581 0 26.4476
0.584312 0.0254866 0 26.0829
0.590633 0.0248887 0 27.0261
0.588415 0.0252343 0 27.0231
0.588893 0.0264646 0 27.1157
0.594791 -0.00114369 0 26.3328
0.594791 -0.00309125 0 26.1873
0.592708 -0.00309273 0 26.0169
0.596875 -0.00309125 0 26.3537
0.596875 -0.00114369 0 26.5017
0.592726 0.0247326 0 27.3035
0.551041 0.00833624 0 23.2757
0.557291 0.00833409 0 23.7033
0.557292 0.00119249 0 23.4892
0.559375 0.00833412 0 23.8434
0.565625 0.00833479 0 24.3206
0.565625 0.00119251 0 24.0895
0.567709 0.00833504 0 24.4852
0.573958 0.00833581 0 25.0207
0.573958 0.00119259 0 24.7508
0.567704 0.0179395 0 24.6813
0.573952 0.0179734 0 25.2103
0.573958 0.0107211 0 25.0902
0.576042 0.0035717 0 25.0323
0.578125 0.00357171 0 25.2156
0.578125 0.00119257 0 25.101
0.576035 0.017984 0 25.4193
0.582284 0.0180013 0 26.0509
0.582291 0.0107224 0 25.8629
0.576024 0.0229785 0 25.4913
0.578099 0.0230199 0 25.5809
0.578119 0.0205171 0 25.5604
0.584375 0.00357169 0 25.7438
0.586458 0.00357164 0 25.9357
0.586459 0.00119255 0 25.8105
0.584367 0.0179915 0 26.2649
0.590621 0.0178984 0 26.8927
0.590625 0.0107171 0 26.6391
0.584345 0.0231664 0 26.168
0.586414 0.0230751 0 26.6227
0.586437 0.0204932 0 26.5409
0.592708 0.0035715 0 26.4682
0.594791 0.00357147 0 26.6519
0.594792 0.0011925 0 26.5152
0.592707 0.0178763 0 27.0849
0.592696 0.0226206 0 27.2513
0.557292 0.0011925 0.01 23.5643
0.557291 0.00833407 0.01 23.7874
0.551041 0.00833618 0.01 23.3865
0.565625 0.00119251 0.01 24.1452
0.565625 0.00833475 0.01 24.3565
0.559375 0.0083341 0.01 23.9162
0.573958 0.00119259 0.01 24.7817
0.573958 0.00833575 0.01 25.0312
0.567709 0.008335 0.01 24.5106
0.573958 0.010721 0.01 25.1019
0.573952 0.0179726 0.01 25.2234
0.567704 0.0179389 0.01 24.7001
0.578125 0.00119258 0.01 25.1216
0.578125 0.0035717 0.01 25.2328
0.576042 0.00357169 0.01 25.052
0.582291 0.0107223 0.01 25.8709
0.582284 0.0180004 0.01 26.03
0.576035 0.0179831 0.01 25.4262
0.578114 0.0205298 0.01 25.6381
0.578102 0.0230407 0.01 25.6331
0.576024 0.022987 0.01 25.5559
0.586459 0.00119256 0.01 25.8214
0.586458 0.00357164 0.01 25.9411
0.584375 0.00357168 0.01 25.7556
0.590625 0.0107171 0.01 26.6238
0.590621 0.0178981 0.01 26.8459
0.584367 0.0179906 0.01 26.2521
0.586437 0.0204916 0.01 26.5789
0.586411 0.0231199 0.01 26.6771
0.584351 0.0231886 0.01 26.2001
0.594792 0.00119251 0.01 26.5184
0.594791 0.00357147 0.01 26.6495
0.592708 0.0035715 0.01 26.4725
0.592707 0.0178762 0.01 27.0291
0.5927 0.0226377 0.01 27.144
0.553125 -0.00114371 0 23.0926
0.553125 -0.00309131 0 22.9809
0.551041 -0.0030926 0 22.8637
0.557292 -0.00309261 0 23.2441
0.555209 -0.00309131 0 23.1057
0.555209 -0.00114372 0 23.2193
0.561458 -0.00114373 0 23.6419
0.561458 -0.00309131 0 23.538
0.559375 -0.00309261 0 23.3896
0.565625 -0.00309261 0 23.8395
0.563542 -0.00309131 0 23.6858
0.563542 -0.00114372 0 23.7919
0.569791 -0.00114372 0 24.2676
0.569791 -0.00309131 0 24.1563
0.567708 -0.00309261 0 23.9968
0.573959 -0.00309273 0 24.4809
0.571875 -0.00309125 0 24.3159
0.571875 -0.00114367 0 24.4304
0.571856 0.020444 0 25.1965
0.571871 0.022848 0 25.1788
0.573942 0.0229232 0 25.2598
0.580191 0.0205658 0 25.889
0.580192 0.0231514 0 25.7483
0.582254 0.0231967 0 26.3658
0.588524 0.0204022 0 26.8111
0.588506 0.0229095 0 26.9849
0.590606 0.0227487 0 27.041
0.555209 -0.00114359 0.01 23.3005
0.555209 -0.00309047 0.01 23.176
0.557292 -0.00309177 0.01 23.3056
0.551041 -0.00309176 0.01 22.9487
0.553125 -0.00309047 0.01 23.0595
0.553125 -0.00114358 0.01 23.1824
0.563542 -0.00114359 0.01 23.856
0.563542 -0.00309047 0.01 23.7304
0.565625 -0.00309177 0.01 23.8793
0.559375 -0.00309177 0.01 23.4445
0.561458 -0.00309047 0.01 23.586
0.561458 -0.00114359 0.01 23.7116
0.571875 -0.00114353 0.01 24.4696
0.571875 -0.00309041 0.01 24.3424
0.573959 -0.00309178 0.01 24.5036
0.567708 -0.00309177 0.01 24.0318
0.569791 -0.00309047 0.01 24.1857
0.569791 -0.00114358 0.01 24.3123
0.573941 0.0229322 0.01 25.2486
0.571866 0.0228715 0.01 25.135
0.57186 0.020457 0.01 25.1556
0.571866 0.0249236 0.01 25.1052
0.573942 0.0250429 0.01 25.2495
0.580209 -0.00114352 0.01 25.1282
0.580209 -0.00309041 0.01 24.9975
0.582292 -0.00309178 0.01 25.168
0.576041 -0.00309178 0.01 24.6677
0.578125 -0.00309041 0.01 24.8314
0.578125 -0.00114352 0.01 24.9612
0.582258 0.0231803 0.01 26.2033
0.580188 0.0231388 0.01 25.7692
0.580191 0.0205637 0.01 25.8706
0.580165 0.0253423 0.01 25.7611
0.582266 0.0254528 0.01 26.0408
0.576014 0.025138 0.01 25.6164
0.578092 0.0252146 0.01 25.6865
0.588542 -0.00114354 0.01 25.8227
0.588542 -0.00309041 0.01 25.6819
0.590625 -0.00309179 0.01 25.8517
0.584375 -0.00309178 0.01 25.3413
0.586458 -0.00309041 0.01 25.5129
0.586458 -0.00114353 0.01 25.6513
0.590606 0.0227486 0.01 26.9119
0.5885 0.02293 0.01 26.9441
0.588524 0.0204013 0.01 26.7704
0.588891 0.0265043 0.01 26.9766
0.588419 0.0252804 0.01 26.9308
0.590628 0.024901 0.01 26.8473
0.584305 0.0255289 0.01 26.2903
0.586363 0.0255338 0.01 26.4346
0.596875 -0.00114355 0.01 26.5045
0.596875 -0.00309041 0.01 26.3566
0.592708 -0.00309179 0.01 26.0231
0.594791 -0.00309041 0.01 26.1919
0.594791 -0.00114354 0.01 26.3383
0.592723 0.0247675 0.01 27.1823
0.578125 0.00833593 0 25.4046
0.578125 0.00595326 0 25.3231
0.576042 0.00595322 0 25.1326
0.582291 0.00595326 0 25.6825
0.580209 0.00595328 0 25.5111
0.580208 0.00833619 0 25.6026
0.580208 0.00119257 0 25.2777
0.580209 0.00357172 0 25.3974
0.582291 0.00357171 0 25.5679
0.586458 0.00833551 0 26.1605
0.586458 0.00595306 0 26.0563
0.584375 0.00595319 0 25.8617
0.590625 0.00595272 0 26.425
0.588541 0.00595289 0 26.2464
0.588541 0.00833488 0 26.3543
0.588541 0.00119254 0 25.9913
0.588541 0.00357159 0 26.1249
0.590625 0.00357154 0 26.2976
0.594791 0.00833366 0 26.9076
0.594791 0.0059525 0 26.7874
0.592708 0.00595259 0 26.6036
0.596875 0.00595246 0 26.9676
0.596875 0.00833354 0 27.0907
0.596875 0.00119249 0 26.692
0.596875 0.00357145 0 26.8349
0.582291 0.0035717 0.01 25.5793
0.580208 0.0035717 0.01 25.4107
0.580208 0.00119258 0.01 25.2934
0.580208 0.00833613 0.01 25.6152
0.580209 0.00595326 0.01 25.523
0.582291 0.00595323 0.01 25.6913
0.576042 0.0059532 0.01 25.1458
0.578125 0.00595324 0.01 25.3371
0.578125 0.00833587 0.01 25.4191
0.590625 0.00357154 0.01 26.297
0.588541 0.00357159 0.01 26.1224
0.588541 0.00119255 0.01 25.9971
0.588541 0.00833484 0.01 26.3488
0.588541 0.00595288 0.01 26.2433
0.590625 0.00595271 0.01 26.4201
0.584375 0.00595316 0.01 25.8681
0.586458 0.00595304 0.01 26.0582
0.586458 0.00833546 0.01 26.1626
0.596875 0.00357146 0.01 26.8219
0.596875 0.0011925 0.01 26.6871
0.596875 0.00833354 0.01 27.0691
0.596875 0.00595246 0.01 26.9531
0.592708 0.00595258 0.01 26.5984
0.594791 0.0059525 0.01 26.7785
0.594791 0.00833365 0.01 26.893
0.101093 -0.00919501 0 -13.1972
0.109385 -0.00876016 0 -9.64502
0.117693 -0.00822008 0 -7.06136
0.125998 -0.00774877 0 -5.8365
0.134271 -0.00743849 0 -5.101
0.142702 -0.00798999 0 -3.20778
0.151032 -0.00777377 0 -2.46756
0.15934 -0.00740347 0 -1.57475
0.16766 -0.00718291 0 -1.0402
0.176018 -0.0076363 0 0.0424504
0.184371 -0.00773988 0 0.973414
0.192684 -0.00761805 0 1.74253
0.201019 -0.00747914 0 2.32505
0.209366 -0.00775086 0 2.83665
0.217709 -0.00781607 0 3.79713
0.226037 -0.00774777 0 4.50673
0.234365 -0.00767837 0 5.22401
0.242699 -0.00770513 0 5.85961
0.243053 0.000406878 0 6.87737
0.251052 0.000560668 0 6.48304
0.1011 -0.00917048 0.01 -12.4933
0.109395 -0.00873816 0.01 -8.89792
0.117702 -0.00820226 0.01 -6.198
0.126007 -0.00773453 0.01 -5.04337
0.134278 -0.00743684 0.01 -4.20561
0.142732 -0.00800059 0.01 -3.17777
0.151044 -0.00775151 0.01 -2.27671
0.159347 -0.00741766 0.01 -1.42912
0.167674 -0.00718652 0.01 -0.734756
0.176018 -0.00763619 0.01 0.149844
0.184371 -0.00773948 0.01 1.15275
0.19269 -0.00760616 0.01 1.88484
0.201025 -0.00749327 0.01 2.51133
0.209366 -0.00775008 0.01 3.11502
0.217709 -0.00781477 0.01 3.8539
0.226037 -0.0077472 0.01 4.45421
0.234366 -0.0076789 0.01 5.09583
0.242699 -0.00770661 0.01 5.70662
0.243052 0.000433816 0.01 6.03985
0.251056 0.000558977 0.01 7.39323
0.0490424 -0.0108272 0 -17.7726
0.0508621 -0.0108253 0 -14.1524
0.0991799 -0.00934788 0 -15.5475
0.107352 -0.00884906 0 -10.5623
0.115657 -0.008354 0 -8.73019
0.123959 -0.00786462 0 -7.11891
0.132264 -0.00745458 0 -5.96492
0.140649 -0.00797115 0 -4.23431
0.148968 -0.00785052 0 -2.60867
0.157287 -0.00749534 0 -1.96383
0.165587 -0.00720717 0 -0.670963
0.173912 -0.00744952 0 0.0583331
0.182286 -0.00776731 0 0.767084
0.190609 -0.00762927 0 1.49709
0.198946 -0.0075188 0 2.26704
0.207644 -0.00210182 0 2.49115
0.207267 -0.00765824 0 2.86051
0.209519 -0.00221416 0 1.89305
0.215651 -0.00194939 0 4.0613
0.215621 -0.00782621 0 3.73054
0.217738 -0.00183307 0 3.81482
0.22395 -0.00146597 0 4.22217
0.22395 -0.00776587 0 4.34201
0.226043 -0.00134317 0 4.4295
0.232247 -0.000976902 0 5.18483
0.232279 -0.00769406 0 5.04349
0.234318 -0.000808545 0 5.2312
0.240509 -0.00051347 0 5.75294
0.24061 -0.0076827 0 5.73632
0.242594 -0.000824798 0 7.08468
0.248967 -0.00125271 0 6.06249
0.248953 -0.00770848 0 6.07441
0.249009 0.000444598 0 6.43349
0.257303 0.000919451 0 7.09728
0.0490354 -0.0108178 0.01 -19.7798
0.050926 -0.0110853 0.01 -15.6006
0.0991641 -0.00931944 0.01 -17.904
0.107341 -0.00882798 0.01 -10.4762
0.115645 -0.00833542 0.01 -8.37611
0.123947 -0.00784961 0.01 -6.83363
0.132255 -0.00745328 0.01 -5.65417
0.140646 -0.00798151 0.01 -4.36882
0.148952 -0.0078277 0.01 -2.8894
0.157265 -0.00751084 0.01 -1.881
0.165587 -0.00720733 0.01 -1.02237
0.173903 -0.00742945 0.01 0.309603
0.182286 -0.00776661 0.01 0.831805
0.190609 -0.00763015 0.01 1.55955
0.198936 -0.00751944 0.01 2.2691
0.207267 -0.00765835 0.01 3.10279
0.207643 -0.00206472 0.01 3.4242
0.215622 -0.00782484 0.01 3.7543
0.215652 -0.00193307 0.01 4.83344
0.209519 -0.00217962 0.01 2.20064
0.22395 -0.00776516 0.01 4.2947
0.223954 -0.00146724 0.01 4.9763
0.217737 -0.00182164 0.01 3.33492
0.232279 -0.00769441 0.01 4.93196
0.23225 -0.000975793 0.01 5.77317
0.226039 -0.00134427 0.01 3.77393
0.24061 -0.0076837 0.01 5.57294
0.24051 -0.00050965 0.01 5.99266
0.234323 -0.000824955 0.01 4.33913
0.248953 -0.00770863 0.01 6.02783
0.248967 -0.00127208 0.01 6.14119
0.242587 -0.000801247 0.01 6.47391
0.249004 0.000443278 0.01 6.0179
0.257297 0.000937908 0.01 6.38357
0.251039 -0.00768908 0 6.27574
0.259353 -0.0076036 0 8.02289
0.259354 0.00104857 0 6.95222
0.267648 0.00152319 0 7.32707
0.275901 0.00156015 0 8.1946
0.284378 0.00113572 0 8.22758
0.292684 0.00143044 0 8.88583
0.301005 0.00169748 0 9.4461
0.309343 0.00131469 0 9.87874
0.317702 0.00129626 0 10.6793
0.326025 0.0014339 0 11.1042
0.33435 0.00150064 0 11.6042
0.342703 0.00124079 0 11.9508
0.351037 0.00125809 0 12.8725
0.359365 0.00131653 0 13.4816
0.367699 0.00126603 0 13.9801
0.36806 0.00983151 0 14.4533
0.37604 0.0012077 0 14.376
0.376061 0.0100133 0 14.4852
0.384372 0.00123079 0 14.923
0.38435 0.0106087 0 14.978
0.392704 0.00124091 0 15.4601
0.392636 0.0110897 0 15.348
0.40104 0.00120163 0 15.9061
0.401054 0.0105018 0 15.4591
0.409374 0.00120106 0 16.4353
0.409368 0.0107882 0 16.4875
0.417707 0.00121028 0 16.9483
0.417675 0.0111174 0 17.0648
0.42604 0.00120297 0 17.4441
0.425975 0.011015 0 18.1326
0.434375 0.00119364 0 17.8941
0.434364 0.0107562 0 18.2329
0.442708 0.00119964 0 18.3602
0.442687 0.0109001 0 18.5904
0.451041 0.00121353 0 18.8059
0.451017 0.0110045 0 19.0819
0.459374 0.0012282 0 19.2277
0.459371 0.0107585 0 19.3685
0.467707 0.00124459 0 19.661
0.467704 0.0107775 0 19.942
0.476041 0.00121869 0 20.0192
0.476032 0.0108386 0 20.3195
0.484375 0.00119596 0 20.3118
0.484364 0.010829 0 20.6943
0.492708 0.00119304 0 20.6379
0.492707 0.0107364 0 20.9388
0.492737 0.0195073 0 21.0216
0.501042 0.00119307 0 20.9855
0.501039 0.0107518 0 21.3311
0.501021 0.020069 0 21.5012
0.509375 0.00119327 0 21.3103
0.509371 0.0107689 0 21.6482
0.509317 0.0205648 0 21.6566
0.517708 0.00119281 0 21.6132
0.517706 0.0107338 0 21.9232
0.517704 0.0201406 0 21.914
0.526041 0.00119257 0 21.9233
0.526041 0.0107215 0 22.2322
0.526044 0.0201611 0 22.4226
0.534375 0.00119267 0 22.2631
0.534374 0.0107304 0 22.5552
0.534357 0.0204546 0 22.7299
0.542708 0.00119272 0 22.6438
0.542707 0.0107359 0 22.8999
0.542681 0.020781 0 23.1049
0.551041 0.0107221 0 23.3324
0.551013 0.020336 0 23.584
0.559375 0.0107163 0 23.894
0.559365 0.0202704 0 24.1563
0.567699 0.0204213 0 24.7361
0.251039 -0.00768915 0.01 6.25697
0.259353 -0.00760366 0.01 8.01539
0.259362 0.00105841 0.01 7.72346
0.267646 0.00156159 0.01 7.96161
0.275918 0.00155904 0.01 8.79506
0.284378 0.001143 0.01 8.52968
0.292689 0.00143669 0.01 9.02678
0.301006 0.00169893 0.01 9.49154
0.309348 0.00133215 0.01 9.75149
0.317702 0.00129567 0.01 10.6926
0.326025 0.00143218 0.01 11.1382
0.33435 0.00149862 0.01 11.6551
0.342704 0.00124073 0.01 11.903
0.351037 0.00125771 0.01 12.7785
0.359365 0.00131575 0.01 13.3724
0.3677 0.00126553 0.01 13.9062
0.368058 0.00986982 0.01 14.2758
0.37604 0.00120756 0.01 14.3625
0.376066 0.0100695 0.01 15.0084
0.384372 0.00123045 0.01 14.9037
0.384355 0.010609 0.01 15.3507
0.392704 0.00124049 0.01 15.4279
0.392627 0.0111439 0.01 15.6782
0.401041 0.00120159 0.01 15.8736
0.401061 0.0105192 0.01 15.6592