# p  FACE_DATA 11666
# x y z  p
0.0596589 0.0485184 0.00125 -36.7171
0.101562 0.0658665 0.00124988 -62.8313
0.134326 0.0763298 0.00125007 -72.0448
0.0156349 -0.00987769 0.00124999 -28.2506
0.00986925 -0.00870838 0.00875 -48.5671
0.015635 -0.00987629 0.00874999 -28.9111
0.0241069 -0.0106137 0.00124999 -19.4587
0.0176922 -0.0101479 0.00874997 -38.8472
0.0241084 -0.0106006 0.00875 -18.1198
0.00763978 -0.00781489 0.00875 -24.9162
0.00249986 0.007756 0.00124998 71.7657
0.00249976 0.00775583 0.00875 71.4228
0.0100541 0.0171346 0.00125 29.6483
0.0100541 0.0171346 0.00875 29.3347
0.0346937 0.0353866 0.00125 -15.3771
0.0346936 0.0353866 0.00875 -15.6414
0.0515461 0.0446016 0.00125 -36.1154
0.0515461 0.0446016 0.00875 -36.2926
0.0596591 0.0485182 0.00875 -36.8181
0.0739278 0.0550046 0.00124997 -47.4542
0.0739295 0.0549989 0.00875 -48.5189
0.0761697 0.0559647 0.00125002 -45.8516
0.0761716 0.055959 0.00875 -44.1583
0.0992795 0.0650143 0.00125006 -58.36
0.0992798 0.0650141 0.00875 -58.4791
0.124167 0.0734248 0.0012499 -78.6493
0.124168 0.0734247 0.00875 -78.8327
0.126 0.0739553 0.0012501 -79.564
0.126001 0.0739544 0.00875 -79.7416
0.00348497 -0.00540105 0.00375 0.254075
0.00348498 -0.00540103 0.00125 -10.4842
0.00390561 0.00991142 0.00125001 64.385
0.00390554 0.00991136 0.00375001 79.5531
0.0123385 0.0192647 0.00125 23.9877
0.0123385 0.0192647 0.00375 29.2544
0.0285313 0.0316828 0.00375 -19.4754
0.0285313 0.0316828 0.00125 -18.1702
0.0451676 0.0412112 0.00375 -25.2839
0.0618131 0.0495539 0.00374999 -38.7285
0.0596589 0.0485185 0.00375001 -36.9873
0.0783681 0.0569126 0.00125 -50.0741
0.0783681 0.0569126 0.00374999 -50.5734
0.0867428 0.0603561 0.00375001 -60.4821
0.101562 0.0658665 0.00375 -63.4913
0.103292 0.0664919 0.00124992 -67.3542
0.103292 0.066492 0.00374999 -68.2714
0.111447 0.0692183 0.00375004 -67.2917
0.134325 0.0763333 0.00374992 -73.3095
0.136722 0.0770123 0.00124995 -67.8957
0.136721 0.0770159 0.00375005 -71.4612
0.145051 0.0793848 0.00375008 -75.0883
0.0156347 -0.00987844 0.00375 -35.7263
0.0136076 -0.00949862 0.00125 -30.4445
0.0136076 -0.00949862 0.00375 -38.3686
0.0176912 -0.0101618 0.00374995 -47.3301
0.0197529 -0.0103145 0.00125003 -29.8724
0.0197524 -0.0103197 0.00375004 -39.2033
0.0241068 -0.0106201 0.00374998 -26.402
0.0217146 -0.0104413 0.00125002 -22.1862
0.0217143 -0.0104492 0.00375006 -30.1367
0.0282211 -0.0108018 0.00375 -28.6618
0.0302103 -0.0108156 0.00375 -22.4187
0.0076396 -0.0078153 0.00375001 -26.8957
0.00547024 -0.00679722 0.00125 -42.2237
0.00143952 -0.00309457 0.00125002 37.5589
0.00249975 0.00775596 0.00374998 90.353
0.0058448 0.0124572 0.00375 61.7019
0.0079031 0.0148477 0.00375 54.7924
0.0100541 0.0171346 0.00375 36.5627
0.0141149 0.0208497 0.00374999 27.8151
0.0201896 0.0257898 0.00125 5.14256
0.0326383 0.0341513 0.00375 -12.0007
0.0346936 0.0353866 0.00375 -15.7374
0.0367466 0.0366202 0.00125 -19.2867
0.0367466 0.0366202 0.00375 -20.1691
0.0515461 0.0446016 0.00374999 -36.402
0.0531428 0.0453811 0.00125 -38.4309
0.0639772 0.0505932 0.00375 -41.3248
0.0700375 0.053339 0.00125 -44.445
0.0739264 0.0550072 0.00374994 -48.0636
0.0722766 0.0543039 0.00125 -45.5907
0.0761684 0.0559673 0.00375005 -47.5828
0.0805723 0.0578565 0.00125 -52.3292
0.0805723 0.0578565 0.00375 -53.0676
0.0930067 0.0626838 0.00125 -55.27
0.0952866 0.0635344 0.00125 -57.447
0.099279 0.0650161 0.00375 -59.695
0.0969659 0.0641545 0.00125 -58.9473
0.105094 0.0670986 0.0012501 -68.8082
0.105092 0.0671034 0.0037499 -69.7953
0.113773 0.0699913 0.00374998 -65.0621
0.120117 0.072101 0.00374998 -69.3946
0.120118 0.0720993 0.00125 -66.7586
0.124167 0.0734249 0.00375 -80.4088
0.12242 0.0728681 0.00125 -71.9928
0.125998 0.0739606 0.00374987 -80.1622
0.128392 0.0746367 0.00125 -67.2386
0.139046 0.0776819 0.00375 -75.3373
0.0156348 -0.00987736 0.00625 -36.1164
0.0136075 -0.00949862 0.00875 -31.0154
0.0136075 -0.00949862 0.00625 -38.7029
0.0176916 -0.0101555 0.00624994 -47.8986
0.0197534 -0.0103035 0.00875 -29.2014
0.0197528 -0.0103122 0.00625 -38.6504
0.0241076 -0.0106114 0.00625002 -25.7433
0.0217161 -0.0104253 0.00874999 -23.2585
0.0217152 -0.0104383 0.00625004 -30.8731
0.0282212 -0.0108018 0.00624999 -28.9581
0.0302103 -0.0108155 0.00625 -22.5841
0.00348497 -0.00540105 0.00625 -0.251308
0.00348498 -0.00540103 0.00875 -11.1832
0.00763959 -0.00781529 0.00625 -27.2345
0.00547019 -0.00679721 0.00875 -42.8275
0.00249971 0.0077559 0.00624999 90.0269
0.00390549 0.00991128 0.00625 79.2572
0.00584477 0.0124572 0.00625 61.4582
0.00790308 0.0148476 0.00875 43.7132
0.0100541 0.0171346 0.00625001 36.3542
0.0123385 0.0192647 0.00624999 29.0399
0.0141149 0.0208497 0.00625001 27.5653
0.0158688 0.0224099 0.00874999 16.188
0.0182596 0.0243548 0.00874999 1.41192
0.0201895 0.0257898 0.00875 4.78335
0.0285313 0.0316828 0.00625 -19.6016
0.0285313 0.0316829 0.00875 -18.468
0.0326383 0.0341513 0.00875 -11.8069
0.0346936 0.0353866 0.00625 -15.8868
0.0367466 0.0366202 0.00875 -19.5221
0.0367466 0.0366202 0.00625 -20.2903
0.0409383 0.038949 0.00625 -24.2121
0.0451676 0.0412112 0.00625 -25.3915
0.0451676 0.0412112 0.00875 -24.5058
0.0515461 0.0446016 0.00625 -36.484
0.0531429 0.0453804 0.00875 -38.6804
0.0553392 0.0464351 0.00875 -31.9094
0.0618131 0.0495539 0.00624999 -38.8262
0.059659 0.0485184 0.00625 -37.0468
0.0639771 0.0505932 0.00625 -41.4179
0.0739276 0.0550035 0.00624998 -48.6983
0.0722765 0.0543039 0.00875 -45.9238
0.0761697 0.0559636 0.00625003 -46.8242
0.0867429 0.060356 0.00625 -60.4972
0.0930069 0.0626832 0.00875001 -55.1668
0.0952867 0.0635344 0.00875 -57.641
0.0992791 0.065016 0.00625 -59.7637
0.096966 0.0641543 0.00875 -59.1772
0.107436 0.0678759 0.00625005 -60.9946
0.111447 0.0692181 0.00624994 -67.7126
0.113773 0.0699911 0.00625004 -65.0291
0.120117 0.0721009 0.00625003 -69.4232
0.124167 0.0734248 0.00625009 -80.5006
0.122419 0.0728681 0.00875 -72.1345
0.125999 0.0739601 0.00624999 -80.2387
0.128392 0.074636 0.00875 -67.1393
0.128391 0.0746415 0.00624997 -70.2662
0.139047 0.0776819 0.00625 -75.7433
0.145051 0.0793845 0.00625001 -75.0169
0.00986926 -0.00870838 0.00124999 -48.0533
0.0076398 -0.00781489 0.00125 -24.407
0.0176917 -0.0101574 0.00125007 -37.971
0.000200385 0.00101878 0.00124999 90.0092
0.0265126 0.0304203 0.00125 -14.6753
0.0409383 0.038949 0.00125002 -22.899
0.0430512 0.0400793 0.00124999 -22.396
0.0844473 0.0594811 0.00125001 -63.498
0.109733 0.0686517 0.00125 -63.9889
0.142658 0.0786991 0.00125 -76.1379
0.0264126 -0.0107599 0.00124996 -24.0447
0.0264128 -0.0107599 0.00875 -24.8067
0.00030057 -0.000910135 0.00124996 68.296
0.000300479 -0.00090986 0.00875 67.6062
0.00143944 -0.00309431 0.00875 36.7706
0.000200372 0.00101871 0.00875 89.4772
0.0245666 0.0290269 0.00125 -3.38157
0.0220896 0.0271946 0.00125 4.24776
0.0245669 0.0290265 0.00875 -3.61057
0.0220899 0.0271942 0.00875 3.89175
0.0265126 0.0304203 0.00875 -14.9903
0.0409384 0.0389488 0.00875 -23.0532
0.0430512 0.0400793 0.00875 -22.6122
0.0574973 0.0474804 0.00125 -35.4245
0.055339 0.0464357 0.00125 -31.9117
0.0574975 0.0474802 0.00875 -35.6443
0.082793 0.0588075 0.00124999 -55.6433
0.082793 0.0588075 0.00875 -55.7392
0.0844474 0.0594808 0.00875 -63.6313
0.107436 0.0678775 0.00124998 -58.756
0.101562 0.0658665 0.00875 -63.2191
0.107439 0.067868 0.00875 -55.2808
0.109734 0.0686517 0.00875 -65.3448
0.132483 0.0758129 0.00125 -71.9489
0.132483 0.0758129 0.00875 -72.3169
0.134327 0.0763232 0.00875 -73.4564
0.140815 0.0781855 0.00125 -73.3587
0.140816 0.0781855 0.00875 -73.8903
0.142658 0.0786984 0.00875 -76.356
0.00986924 -0.00870838 0.00375 -58.176
0.011654 -0.00912788 0.00125001 -46.3814
0.0116539 -0.00912788 0.00374999 -57.2922
0.000200379 0.00101875 0.00374999 120.701
0.0013868 0.00543825 0.00125 85.8431
0.000586819 0.00298345 0.00125 92.5713
0.000586809 0.0029834 0.00375 119.49
0.0158685 0.0224104 0.00124999 16.5475
0.0182592 0.0243553 0.00125003 1.62717
0.0158681 0.0224108 0.00375001 20.3478
0.0182589 0.0243556 0.00374999 2.53092
0.0265126 0.0304203 0.00374999 -14.7522
0.0430512 0.0400793 0.00375 -23.4084
0.0409382 0.0389491 0.00375 -24.14
0.0451676 0.0412112 0.00125 -24.3057
0.0618131 0.0495539 0.00125 -38.3318
0.0700363 0.0533415 0.00375 -46.2868
0.0677828 0.0523723 0.00125 -53.4245
0.0677816 0.0523749 0.00374999 -52.3302
0.0844463 0.0594837 0.00375001 -63.0885
0.0867438 0.0603536 0.00125 -59.1143
0.109733 0.0686517 0.00375 -66.6305
0.107435 0.0678823 0.00375006 -62.7854
0.111448 0.0692157 0.00125 -65.0144
0.117778 0.0713216 0.00125 -67.5662
0.117778 0.0713233 0.00375003 -68.6154
0.142656 0.0787041 0.00374996 -76.8875
0.145053 0.0793798 0.00125 -72.0456
0.0264127 -0.0107599 0.00374998 -31.0328
0.0282212 -0.0108018 0.00125 -22.5942
0.0302103 -0.0108155 0.00125 -17.708
0.00547002 -0.00679765 0.00374999 -42.9762
0.00143948 -0.00309443 0.00375002 62.4997
0.000300522 -0.00090999 0.00374997 100.232
0.00138673 0.00543826 0.00375 107.434
0.00584483 0.0124572 0.00125 50.2486
0.00790312 0.0148477 0.00125 44.0463
0.014115 0.0208496 0.00125 22.0336
0.0201895 0.0257898 0.00374999 6.52075
0.0220894 0.0271949 0.00375001 5.66576
0.0245664 0.0290271 0.00375 -2.20602
0.0305852 0.0329173 0.00375 -12.7649
0.0326383 0.0341513 0.00125 -11.5461
0.0305852 0.0329173 0.00125 -11.5329
0.0388237 0.0378181 0.00124998 -27.4836
0.0388236 0.0378182 0.00375 -28.6402
0.0472819 0.042342 0.00375 -27.6805
0.0493989 0.0434742 0.00125 -30.0839
0.0493989 0.0434743 0.00375001 -30.5583
0.0472819 0.042342 0.00125 -26.8043
0.053141 0.0453847 0.00374996 -38.6261
0.0553372 0.0464394 0.00375002 -33.8452
0.0574973 0.0474805 0.00374999 -35.5532
0.0639772 0.0505932 0.00125 -41.0301
0.0661609 0.0516418 0.00125 -44.958
0.0661609 0.0516419 0.00375 -44.9778
0.0722765 0.0543039 0.00374998 -46.4414
0.082793 0.0588075 0.00375 -56.4524
0.0890204 0.0612055 0.00374999 -56.7838
0.0906999 0.0618265 0.00125 -56.5842
0.0906997 0.0618269 0.00375 -57.0526
0.0890204 0.0612055 0.00125 -56.33
0.0930065 0.0626842 0.00375001 -56.7567
0.0952866 0.0635343 0.00374999 -58.6532
0.0969653 0.0641562 0.00375 -59.5683
0.113774 0.0699888 0.00125 -62.2349
0.116073 0.0707587 0.00125 -66.1801
0.116073 0.0707587 0.00375 -67.2854
0.12242 0.0728681 0.00375 -74.223
0.128391 0.0746419 0.00375006 -70.2966
0.132483 0.0758129 0.00375 -73.1028
0.130713 0.075309 0.00125 -72.618
0.130714 0.075309 0.00375 -73.0341
0.140816 0.0781856 0.00375 -75.6194
0.139046 0.0776818 0.00125 -72.8033
0.147379 0.080025 0.00374988 -84.9189
0.149162 0.0804761 0.00125 -78.1295
0.149162 0.080476 0.00375 -79.5475
0.147379 0.0800251 0.00125 -84.6244
0.0264128 -0.0107599 0.00625001 -31.3467
0.0282212 -0.0108017 0.00875 -23.3733
0.0302103 -0.0108155 0.00875 -18.1057
0.00986925 -0.00870838 0.00625 -58.4553
0.0116539 -0.00912788 0.00875 -46.92
0.0116539 -0.00912788 0.00625 -57.548
0.00547 -0.00679764 0.00625 -43.4064
0.00143945 -0.00309434 0.00625001 61.9117
0.000300489 -0.000909893 0.00624999 99.6531
0.000200374 0.00101872 0.00625 120.21
0.00138678 0.00543818 0.00875 85.479
0.000586798 0.00298335 0.00875 92.117
0.00138672 0.00543824 0.00625 107.072
0.000586801 0.00298336 0.00625 119.055
0.00390549 0.00991123 0.00875 64.0323
0.00584478 0.0124572 0.00875 49.9311
0.00790308 0.0148477 0.00624999 54.541
0.0123384 0.0192647 0.00875 23.6439
0.0158684 0.0224104 0.00625 20.1136
0.0141149 0.0208496 0.00875 21.6638
0.0182593 0.0243552 0.00625 2.4224
0.0201895 0.0257898 0.00624999 6.31117
0.0220896 0.0271946 0.00625001 5.46133
0.0245666 0.0290269 0.00625 -2.32838
0.0265127 0.0304203 0.00625 -14.9086
0.0305852 0.0329173 0.00625 -12.9129
0.0326383 0.0341513 0.00625 -12.1382
0.0305852 0.0329173 0.00875 -11.8393
0.0388238 0.0378178 0.00875 -27.7248
0.0388237 0.0378181 0.00625 -28.7499
0.0430512 0.0400793 0.00625 -23.5242
0.0472819 0.042342 0.00625 -27.7934
0.049399 0.0434743 0.00875 -30.2612
0.049399 0.0434742 0.00625 -30.6585
0.0472819 0.042342 0.00875 -26.9937
0.053141 0.0453844 0.00625 -38.7386
0.0553373 0.0464391 0.00625001 -33.8698
0.0574974 0.0474803 0.00625 -35.6645
0.0618132 0.0495539 0.00875 -38.4971
0.0639771 0.0505931 0.00875 -41.1827
0.0661609 0.0516419 0.00874999 -45.1221
0.066161 0.0516419 0.00625 -45.0749
0.0700363 0.0533413 0.00625001 -46.3761
0.0677828 0.052372 0.00875001 -53.6465
0.0677817 0.0523748 0.00624999 -52.4214
0.0700375 0.0533386 0.00875 -44.595
0.0722764 0.0543039 0.00625 -46.624
0.0783681 0.0569126 0.00875 -50.6987
0.0783681 0.0569126 0.00625 -50.7472
0.0805723 0.0578565 0.00875 -52.778
0.0805723 0.0578565 0.00625 -53.2639
0.082793 0.0588075 0.00625 -56.52
0.0844464 0.0594835 0.00624997 -63.152
0.0867439 0.0603532 0.00875 -59.1341
0.0890205 0.0612055 0.00625 -56.8591
0.0907001 0.0618259 0.00874999 -56.8181
0.0906999 0.0618264 0.00625 -57.1957
0.0890204 0.0612055 0.00875 -56.4763
0.0930067 0.0626838 0.00625 -56.6839
0.0952866 0.0635343 0.00625 -58.7404
0.0969653 0.0641562 0.00625 -59.6837
0.101562 0.0658665 0.00625 -63.7218
0.103292 0.0664918 0.00874999 -67.825
0.103292 0.0664919 0.00625 -68.5627
0.105096 0.0670889 0.00875001 -70.7928
0.105094 0.067097 0.00624998 -71.022
0.109733 0.0686517 0.00625 -67.147
0.111447 0.0692154 0.00875 -65.8691
0.113773 0.0699884 0.00875 -62.1198
0.116073 0.0707587 0.00875 -66.3542
0.116073 0.0707587 0.00625 -67.3453
0.117778 0.0713215 0.00875 -67.7748
0.117778 0.0713233 0.00624996 -68.7056
0.120118 0.0720992 0.00875 -66.8093
0.12242 0.0728681 0.00625 -74.2881
0.132483 0.0758129 0.00625 -73.3229
0.130713 0.075309 0.00875 -73.0073
0.130713 0.0753091 0.00625 -73.2365
0.134326 0.0763288 0.00624998 -74.2146
0.136724 0.0770058 0.00875 -65.4299
0.136722 0.0770114 0.00625004 -70.1355
0.140816 0.0781855 0.00625 -75.8988
0.139046 0.0776819 0.00875 -73.7918
0.142656 0.0787038 0.00625 -77.0042
0.145053 0.0793791 0.00875 -71.8955
0.14738 0.0800251 0.00625 -84.9725
0.149162 0.080476 0.00875 -78.3038
0.149162 0.0804761 0.00625 -79.6248
0.14738 0.080025 0.00875 -84.7745
0.0490523 -0.010642 0.00125001 4.74782
0.049052 -0.010642 0.00874999 2.85769
0.0490521 -0.010642 0.00375001 -2.82219
0.046909 -0.0106865 0.00374992 -2.31112
0.049052 -0.010642 0.00625001 -9.70557
0.0469091 -0.0106865 0.00875 2.70123
0.0469091 -0.0106865 0.00624997 -4.46024
0.551041 0.00119257 0 27.7876
0.559375 0.00119249 0 28.1584
0.567708 0.00119252 0 28.5125
0.567708 0.0107194 0 29.0155
0.576042 0.00119259 0 28.8417
0.576041 0.0107218 0 29.3325
0.576021 0.0204946 0 29.7282
0.584375 0.00119258 0 29.1549
0.584374 0.0107217 0 29.6515
0.584355 0.0205525 0 29.9908
0.592709 0.00119253 0 29.4558
0.592708 0.0107159 0 29.9654
0.592705 0.0202704 0 30.2627
0.551041 0.00119257 0.01 27.7881
0.559375 0.0011925 0.01 28.1555
0.567708 0.00119252 0.01 28.5089
0.567708 0.0107193 0.01 29.0059
0.576042 0.0011926 0.01 28.8402
0.576041 0.0107217 0.01 29.3346
0.576024 0.020507 0.01 29.72
0.584375 0.00119259 0.01 29.1561
0.584374 0.0107215 0.01 29.6608
0.584355 0.0205506 0.01 30.0337
0.592709 0.00119254 0.01 29.4565
0.592708 0.0107159 0.01 29.9677
0.592705 0.0202704 0.01 30.2189
0.551041 -0.00114394 0 27.6281
0.557292 -0.00114396 0 27.904
0.559375 -0.00114396 0 27.9955
0.565625 -0.00114396 0 28.2602
0.567708 -0.00114396 0 28.3467
0.573959 -0.00114412 0 28.5951
0.573955 0.0204681 0 29.47
0.576041 -0.00114412 0 28.6763
0.582292 -0.00114412 0 28.9121
0.582273 0.0205724 0 29.9808
0.584375 -0.00114412 0 28.9899
0.590625 -0.00114413 0 29.216
0.590744 0.0263698 0 30.1882
0.590616 0.0203182 0 30.1871
0.592708 -0.00114414 0 29.2905
0.592779 0.026369 0 30.4696
0.557292 -0.00114383 0.01 27.9025
0.551041 -0.0011438 0.01 27.6289
0.565625 -0.00114382 0.01 28.2571
0.559375 -0.00114383 0.01 27.9935
0.573959 -0.00114387 0.01 28.5928
0.567708 -0.00114382 0.01 28.3438
0.57395 0.0204816 0.01 29.5236
0.582292 -0.00114387 0.01 28.9119
0.576041 -0.00114387 0.01 28.6748
0.582274 0.0205703 0.01 29.9688
0.590625 -0.00114389 0.01 29.2162
0.584375 -0.00114387 0.01 28.9903
0.590616 0.0203179 0.01 30.1636
0.590748 0.0263839 0.01 30.3576
0.592708 -0.00114389 0.01 29.2907
0.592771 0.0263899 0.01 30.2415
0.576042 0.00833589 0 29.2229
0.582291 0.00833604 0 29.4613
0.582291 0.00119259 0 29.0777
0.584375 0.00833572 0 29.541
0.590625 0.00833435 0 29.7751
0.590625 0.00119254 0 29.3818
0.592708 0.00833392 0 29.8521
0.582291 0.0011926 0.01 29.0784
0.582291 0.00833598 0.01 29.4661
0.576042 0.00833583 0.01 29.2227
0.590625 0.00119255 0.01 29.3828
0.590625 0.00833432 0.01 29.7787
0.584375 0.00833567 0.01 29.5464
0.592708 0.00833391 0.01 29.8533
0.573942 0.0250296 0 29.8199
0.571869 0.0248846 0 29.508
0.578125 -0.00114366 0 28.7558
0.578125 -0.00309124 0 28.5983
0.576041 -0.00309272 0 28.5203
0.582292 -0.00309272 0 28.7527
0.580209 -0.00309124 0 28.6749
0.580209 -0.00114366 0 28.834
0.578093 0.025177 0 29.8174
0.576016 0.0251248 0 29.5955
0.582275 0.0254495 0 30.1194
0.58016 0.0253227 0 29.5796
0.586458 -0.00114367 0 29.0661
0.586458 -0.00309125 0 28.9041
0.584375 -0.00309273 0 28.8297
0.590625 -0.00309273 0 29.0517
0.588542 -0.00309125 0 28.9773
0.588542 -0.00114368 0 29.141
0.586364 0.0254581 0 29.8756
0.584312 0.0254866 0 29.6514
0.590633 0.0248887 0 30.2446
0.588415 0.0252343 0 30.4107
0.588893 0.0264646 0 30.4407
0.594791 -0.00114369 0 29.3634
0.594791 -0.00309125 0 29.1963
0.592708 -0.00309273 0 29.1253
0.596875 -0.00309125 0 29.266
0.596875 -0.00114369 0 29.4348
0.592726 0.0247326 0 30.4195
0.551041 0.00833624 0 28.1349
0.557291 0.00833409 0 28.4262
0.557292 0.00119249 0 28.0664
0.559375 0.00833412 0 28.5262
0.565625 0.00833479 0 28.8085
0.565625 0.00119251 0 28.4263
0.567709 0.00833504 0 28.8967
0.573958 0.00833581 0 29.1439
0.573958 0.00119259 0 28.7614
0.567704 0.0179395 0 29.3477
0.573952 0.0179734 0 29.502
0.573958 0.0107211 0 29.2557
0.576042 0.0035717 0 28.979
0.578125 0.00357171 0 29.0589
0.578125 0.00119257 0 28.9213
0.576035 0.017984 0 29.6006
0.582284 0.0180013 0 29.8428
0.582291 0.0107224 0 29.5706
0.576024 0.0229785 0 29.7066
0.578099 0.0230199 0 29.6094
0.578119 0.0205171 0 29.6127
0.584375 0.00357169 0 29.2945
0.586458 0.00357164 0 29.372
0.586459 0.00119255 0 29.2314
0.584367 0.0179915 0 29.9318
0.590621 0.0178984 0 30.1624
0.590625 0.0107171 0 29.8876
0.584345 0.0231664 0 29.8646
0.586414 0.0230751 0 30.165
0.586437 0.0204932 0 30.0843
0.592708 0.0035715 0 29.5996
0.594791 0.00357147 0 29.6741
0.594792 0.0011925 0 29.5291
0.592707 0.0178763 0 30.2438
0.592696 0.0226206 0 30.3952
0.557292 0.0011925 0.01 28.0642
0.557291 0.00833407 0.01 28.4171
0.551041 0.00833618 0.01 28.1321
0.565625 0.00119251 0.01 28.4224
0.565625 0.00833475 0.01 28.8002
0.559375 0.0083341 0.01 28.5166
0.573958 0.00119259 0.01 28.759
0.573958 0.00833575 0.01 29.1417
0.567709 0.008335 0.01 28.8893
0.573958 0.010721 0.01 29.2548
0.573952 0.0179726 0.01 29.5072
0.567704 0.0179389 0.01 29.3232
0.578125 0.00119258 0.01 28.9206
0.578125 0.0035717 0.01 29.0587
0.576042 0.00357169 0.01 28.9776
0.582291 0.0107223 0.01 29.5793
0.582284 0.0180004 0.01 29.8548
0.576035 0.0179831 0.01 29.6039
0.578114 0.0205298 0.01 29.7025
0.578102 0.0230407 0.01 29.7007
0.576024 0.022987 0.01 29.805
0.586459 0.00119256 0.01 29.2329
0.586458 0.00357164 0.01 29.3744
0.584375 0.00357168 0.01 29.2967
0.590625 0.0107171 0.01 29.8938
0.590621 0.0178981 0.01 30.163
0.584367 0.0179906 0.01 29.9493
0.586437 0.0204916 0.01 30.1763
0.586411 0.0231199 0.01 30.3332
0.584351 0.0231886 0.01 29.945
0.594792 0.00119251 0.01 29.5291
0.594791 0.00357147 0.01 29.6739
0.592708 0.0035715 0.01 29.6005
0.592707 0.0178762 0.01 30.2258
0.5927 0.0226377 0.01 30.2985
0.553125 -0.00114371 0 27.7207
0.553125 -0.00309131 0 27.5794
0.551041 -0.0030926 0 27.4891
0.557292 -0.00309261 0 27.7598
0.555209 -0.00309131 0 27.6689
0.555209 -0.00114372 0 27.8124
0.561458 -0.00114373 0 28.085
0.561458 -0.00309131 0 27.937
0.559375 -0.00309261 0 27.8501
0.565625 -0.00309261 0 28.1095
0.563542 -0.00309131 0 28.0227
0.563542 -0.00114372 0 28.173
0.569791 -0.00114372 0 28.4309
0.569791 -0.00309131 0 28.2773
0.567708 -0.00309261 0 28.1952
0.573959 -0.00309273 0 28.4397
0.571875 -0.00309125 0 28.3581
0.571875 -0.00114367 0 28.5131
0.571856 0.020444 0 29.6489
0.571871 0.022848 0 29.6359
0.573942 0.0229232 0 29.6361
0.580191 0.0205658 0 29.7908
0.580192 0.0231514 0 29.6129
0.582254 0.0231967 0 30.2387
0.588524 0.0204022 0 30.1762
0.588506 0.0229095 0 30.3717
0.590606 0.0227487 0 30.2819
0.555209 -0.00114359 0.01 27.812
0.555209 -0.00309047 0.01 27.6696
0.557292 -0.00309177 0.01 27.7588
0.551041 -0.00309176 0.01 27.49
0.553125 -0.00309047 0.01 27.5808
0.553125 -0.00114358 0.01 27.7212
0.563542 -0.00114359 0.01 28.1704
0.563542 -0.00309047 0.01 28.0215
0.565625 -0.00309177 0.01 28.107
0.559375 -0.00309177 0.01 27.8487
0.561458 -0.00309047 0.01 27.9362
0.561458 -0.00114359 0.01 28.083
0.571875 -0.00114353 0.01 28.511
0.571875 -0.00309041 0.01 28.3567
0.573959 -0.00309178 0.01 28.4376
0.567708 -0.00309177 0.01 28.1928
0.569791 -0.00309047 0.01 28.2759
0.569791 -0.00114358 0.01 28.4286
0.573941 0.0229322 0.01 29.5774
0.571866 0.0228715 0.01 29.5974
0.57186 0.020457 0.01 29.6128
0.571866 0.0249236 0.01 29.5766
0.573942 0.0250429 0.01 29.4727
0.580209 -0.00114352 0.01 28.8338
0.580209 -0.00309041 0.01 28.6748
0.582292 -0.00309178 0.01 28.752
0.576041 -0.00309178 0.01 28.5188
0.578125 -0.00309041 0.01 28.5981
0.578125 -0.00114352 0.01 28.7553
0.582258 0.0231803 0.01 30.085
0.580188 0.0231388 0.01 29.688
0.580191 0.0205637 0.01 29.8287
0.580165 0.0253423 0.01 29.7269
0.582266 0.0254528 0.01 29.7966
0.576014 0.025138 0.01 29.9606
0.578092 0.0252146 0.01 29.843
0.588542 -0.00114354 0.01 29.1419
0.588542 -0.00309041 0.01 28.9781
0.590625 -0.00309179 0.01 29.0515
0.584375 -0.00309178 0.01 28.8296
0.586458 -0.00309041 0.01 28.905
0.586458 -0.00114353 0.01 29.0671
0.590606 0.0227486 0.01 30.2033
0.5885 0.02293 0.01 30.458
0.588524 0.0204013 0.01 30.2221
0.588891 0.0265043 0.01 30.3048
0.588419 0.0252804 0.01 30.4625
0.590628 0.024901 0.01 30.0645
0.584305 0.0255289 0.01 30.0649
0.586363 0.0255338 0.01 29.9818
0.596875 -0.00114355 0.01 29.4341
0.596875 -0.00309041 0.01 29.2656
0.592708 -0.00309179 0.01 29.1251
0.594791 -0.00309041 0.01 29.1966
0.594791 -0.00114354 0.01 29.3635
0.592723 0.0247675 0.01 30.2809
0.578125 0.00833593 0 29.3022
0.578125 0.00595326 0 29.1888
0.576042 0.00595322 0 29.1092
0.582291 0.00595326 0 29.3469
0.580209 0.00595328 0 29.2681
0.580208 0.00833619 0 29.3818
0.580208 0.00119257 0 28.9999
0.580209 0.00357172 0 29.1382
0.582291 0.00357171 0 29.2166
0.586458 0.00833551 0 29.6201
0.586458 0.00595306 0 29.5033
0.584375 0.00595319 0 29.4253
0.590625 0.00595272 0 29.6568
0.588541 0.00595289 0 29.5805
0.588541 0.00833488 0 29.6979
0.588541 0.00119254 0 29.307
0.588541 0.00357159 0 29.4488
0.590625 0.00357154 0 29.5246
0.594791 0.00833366 0 29.9291
0.594791 0.0059525 0 29.8081
0.592708 0.00595259 0 29.7327
0.596875 0.00595246 0 29.8828
0.596875 0.00833354 0 30.0057
0.596875 0.00119249 0 29.6014
0.596875 0.00357145 0 29.7478
0.582291 0.0035717 0.01 29.2183
0.580208 0.0035717 0.01 29.139
0.580208 0.00119258 0.01 29
0.580208 0.00833613 0.01 29.3854
0.580209 0.00595326 0.01 29.2702
0.582291 0.00595323 0.01 29.35
0.576042 0.0059532 0.01 29.1083
0.578125 0.00595324 0.01 29.1895
0.578125 0.00833587 0.01 29.3041
0.590625 0.00357154 0.01 29.5262
0.588541 0.00357159 0.01 29.4509
0.588541 0.00119255 0.01 29.3083
0.588541 0.00833484 0.01 29.703
0.588541 0.00595288 0.01 29.5842
0.590625 0.00595271 0.01 29.6598
0.584375 0.00595316 0.01 29.4292
0.586458 0.00595304 0.01 29.5073
0.586458 0.00833546 0.01 29.6256
0.596875 0.00357146 0.01 29.7462
0.596875 0.0011925 0.01 29.6003
0.596875 0.00833354 0.01 30.002
0.596875 0.00595246 0.01 29.8809
0.592708 0.00595258 0.01 29.7343
0.594791 0.0059525 0.01 29.8081
0.594791 0.00833365 0.01 29.9277
0.101093 -0.00919501 0 1.20917
0.109385 -0.00876016 0 4.12797
0.117693 -0.00822008 0 5.98368
0.125998 -0.00774877 0 6.55438
0.134271 -0.00743849 0 6.79831
0.142702 -0.00798999 0 8.16658
0.151032 -0.00777377 0 8.43135
0.15934 -0.00740347 0 8.9451
0.16766 -0.00718291 0 8.96332
0.176018 -0.0076363 0 9.69531
0.184371 -0.00773988 0 10.2574
0.192684 -0.00761805 0 10.6645
0.201019 -0.00747914 0 10.9421
0.209366 -0.00775086 0 11.1397
0.217709 -0.00781607 0 11.8058
0.226037 -0.00774777 0 12.2263
0.234365 -0.00767837 0 12.675
0.242699 -0.00770513 0 13.053
0.243053 0.000406878 0 14.037
0.251052 0.000560668 0 13.4354
0.1011 -0.00917048 0.01 1.99096
0.109395 -0.00873816 0.01 5.00012
0.117702 -0.00820226 0.01 6.90883
0.126007 -0.00773453 0.01 7.41562
0.134278 -0.00743684 0.01 7.70658
0.142732 -0.00800059 0.01 8.24949
0.151044 -0.00775151 0.01 8.64356
0.159347 -0.00741766 0.01 9.03446
0.167674 -0.00718652 0.01 9.28047
0.176018 -0.00763619 0.01 9.77963
0.184371 -0.00773948 0.01 10.427
0.19269 -0.00760616 0.01 10.8031
0.201025 -0.00749327 0.01 11.1128
0.209366 -0.00775008 0.01 11.4103
0.217709 -0.00781477 0.01 11.8628
0.226037 -0.0077472 0.01 12.1841
0.234366 -0.0076789 0.01 12.5608
0.242699 -0.00770661 0.01 12.9116
0.243052 0.000433816 0.01 13.1918
0.251056 0.000558977 0.01 14.4097
0.0490424 -0.0108272 0 4.74782
0.0508621 -0.0108253 0 8.40737
0.0991799 -0.00934788 0 -0.964321
0.107352 -0.00884906 0 3.35785
0.115657 -0.008354 0 4.55018
0.123959 -0.00786462 0 5.45848
0.132264 -0.00745458 0 6.08137
0.140649 -0.00797115 0 7.40093
0.148968 -0.00785052 0 8.40963
0.157287 -0.00749534 0 8.69098
0.165587 -0.00720717 0 9.40049
0.173912 -0.00744952 0 9.78162
0.182286 -0.00776731 0 10.1472
0.190609 -0.00762927 0 10.5219
0.198946 -0.0075188 0 10.9519
0.207644 -0.00210182 0 10.7759
0.207267 -0.00765824 0 11.2188
0.209519 -0.00221416 0 10.1539
0.215651 -0.00194939 0 12.1091
0.215621 -0.00782621 0 11.8066
0.217738 -0.00183307 0 11.8238
0.22395 -0.00146597 0 11.9916
0.22395 -0.00776587 0 12.1354
0.226043 -0.00134317 0 12.1521
0.232247 -0.000976902 0 12.6992
0.232279 -0.00769406 0 12.5658
0.234318 -0.000808545 0 12.7135
0.240509 -0.00051347 0 13.0313
0.24061 -0.0076827 0 12.9935
0.242594 -0.000824798 0 14.2892
0.248967 -0.00125271 0 13.0839
0.248953 -0.00770848 0 13.0947
0.249009 0.000444598 0 13.4777
0.257303 0.000919451 0 13.8938
0.0490354 -0.0108178 0.01 2.85769
0.050926 -0.0110853 0.01 7.83407
0.0991641 -0.00931944 0.01 -3.1623
0.107341 -0.00882798 0.01 3.57932
0.115645 -0.00833542 0.01 4.94135
0.123947 -0.00784961 0.01 5.77694
0.132255 -0.00745328 0.01 6.39223
0.140646 -0.00798151 0.01 7.25839
0.148952 -0.0078277 0.01 8.18522
0.157265 -0.00751084 0.01 8.74701
0.165587 -0.00720733 0.01 9.1043
0.173903 -0.00742945 0.01 10.0097
0.182286 -0.00776661 0.01 10.2069
0.190609 -0.00763015 0.01 10.5774
0.198936 -0.00751944 0.01 10.9534
0.207267 -0.00765835 0.01 11.4538
0.207643 -0.00206472 0.01 11.7236
0.215622 -0.00782484 0.01 11.8332
0.215652 -0.00193307 0.01 12.9313
0.209519 -0.00217962 0.01 10.4238
0.22395 -0.00776516 0.01 12.0959
0.223954 -0.00146724 0.01 12.8003
0.217737 -0.00182164 0.01 11.3064
0.232279 -0.00769441 0.01 12.4662
0.23225 -0.000975793 0.01 13.3368
0.226039 -0.00134427 0.01 11.4761
0.24061 -0.0076837 0.01 12.8411
0.24051 -0.00050965 0.01 13.2943
0.234323 -0.000824955 0.01 11.7943
0.248953 -0.00770863 0.01 13.0545
0.248967 -0.00127208 0.01 13.1591
0.242587 -0.000801247 0.01 13.6738
0.249004 0.000443278 0.01 13.0241
0.257297 0.000937908 0.01 13.1405
0.251039 -0.00768908 0 13.2214
0.259353 -0.0076036 0 14.5403
0.259354 0.00104857 0 13.67
0.267648 0.00152319 0 13.8688
0.275901 0.00156015 0 14.5134
0.284378 0.00113572 0 14.3347
0.292684 0.00143044 0 14.7675
0.301005 0.00169748 0 15.1281
0.309343 0.00131469 0 15.3647
0.317702 0.00129626 0 15.962
0.326025 0.0014339 0 16.205
0.33435 0.00150064 0 16.5197
0.342703 0.00124079 0 16.7173
0.351037 0.00125809 0 17.5075
0.359365 0.00131653 0 17.9839
0.367699 0.00126603 0 18.3605
0.36806 0.00983151 0 18.9074
0.37604 0.0012077 0 18.6245
0.376061 0.0100133 0 18.7148
0.384372 0.00123079 0 19.0639
0.38435 0.0106087 0 19.0977
0.392704 0.00124091 0 19.505
0.392636 0.0110897 0 19.3162
0.40104 0.00120163 0 19.8742
0.401054 0.0105018 0 19.2782
0.409374 0.00120106 0 20.3462
0.409368 0.0107882 0 20.3627
0.417707 0.00121028 0 20.8186
0.417675 0.0111174 0 20.9105
0.42604 0.00120297 0 21.2706
0.425975 0.011015 0 22.0343
0.434375 0.00119364 0 21.7071
0.434364 0.0107562 0 22.0468
0.442708 0.00119964 0 22.1688
0.442687 0.0109001 0 22.3906
0.451041 0.00121353 0 22.6269
0.451017 0.0110045 0 22.8599
0.459374 0.0012282 0 23.0924
0.459371 0.0107585 0 23.1654
0.467707 0.00124459 0 23.5918
0.467704 0.0107775 0 23.8756
0.476041 0.00121869 0 24.0204
0.476032 0.0108386 0 24.3442
0.484375 0.00119596 0 24.3813
0.484364 0.010829 0 24.7809
0.492708 0.00119304 0 24.8051
0.492707 0.0107364 0 25.0811
0.492737 0.0195073 0 25.1158
0.501042 0.00119307 0 25.2735
0.501039 0.0107518 0 25.6263
0.501021 0.020069 0 25.8613
0.509375 0.00119327 0 25.7309
0.509371 0.0107689 0 26.0905
0.509317 0.0205648 0 26.0739
0.517708 0.00119281 0 26.1677
0.517706 0.0107338 0 26.5186
0.517704 0.0201406 0 26.3262
0.526041 0.00119257 0 26.5958
0.526041 0.0107215 0 26.9864
0.526044 0.0201611 0 27.249
0.534375 0.00119267 0 27.0117
0.534374 0.0107304 0 27.439
0.534357 0.0204546 0 27.7206
0.542708 0.00119272 0 27.4076
0.542707 0.0107359 0 27.8486
0.542681 0.020781 0 28.1231
0.551041 0.0107221 0 28.2281
0.551013 0.020336 0 28.5449
0.559375 0.0107163 0 28.6388
0.559365 0.0202704 0 29.106
0.567699 0.0204213 0 29.4457
0.251039 -0.00768915 0.01 13.211
0.259353 -0.00760366 0.01 14.5455
0.259362 0.00105841 0.01 14.5
0.267646 0.00156159 0.01 14.5613
0.275918 0.00155904 0.01 15.1692
0.284378 0.001143 0.01 14.6385
0.292689 0.00143669 0.01 14.9197
0.301006 0.00169893 0.01 15.1861
0.309348 0.00133215 0.01 15.2456
0.317702 0.00129567 0.01 16.0048
0.326025 0.00143218 0.01 16.273
0.33435 0.00149862 0.01 16.6137
0.342704 0.00124073 0.01 16.7037
0.351037 0.00125771 0.01 17.4407
0.359365 0.00131575 0.01 17.8981
0.3677 0.00126553 0.01 18.3041
0.368058 0.00986982 0.01 18.6491
0.37604 0.00120756 0.01 18.6443
0.376066 0.0100695 0.01 19.4406
0.384372 0.00123045 0.01 19.08
0.384355 0.010609 0.01 19.6584
0.392704 0.00124049 0.01 19.5069
0.392627 0.0111439 0.01 19.8651
0.401041 0.00120159 0.01 19.8732
0.401061 0.0105192 0.01 19.5665
0.409374 0.00120091 0.01 20.3579
0.409368 0.0107929 0.01 20.54