/*--------------------------------*- C++ -*----------------------------------*\
| =========                 |                                                 |
| \\      /  F ield         | OpenFOAM: The Open Source CFD Toolbox           |
|  \\    /   O peration     | Version:  2506                                  |
|   \\  /    A nd           | Website:  www.openfoam.com                      |
|    \\/     M anipulation  |                                                 |
\*---------------------------------------------------------------------------*/
FoamFile
{
    version     2.0;
    format      ascii;
    arch        "LSB;label=32;scalar=64";
    class       volScalarField;
    location    "300";
    object      epsilon;
}
// * * * * * * * * * * * * * * * * * * * * * * * * * * * * * * * * * * * * * //

dimensions      [0 2 -3 0 0 0 0];

internalField   nonuniform List<scalar> 
131949
(
0.427376
0.492065
0.494244
0.487064
0.480353
0.474532
0.469349
0.464761
0.46068
0.456995
0.453622
0.450497
0.447574
0.444816
0.442197
0.439694
0.437291
0.434974
0.432731
0.430555
0.428437
0.426371
0.424353
0.422377
0.42044
0.418538
0.41667
0.414832
0.413022
0.411238
0.409479
0.407744
0.40603
0.404337
0.402664
0.401009
0.399372
0.397752
0.396149
0.394561
0.392988
0.39143
0.389886
0.388355
0.386838
0.385333
0.38384
0.38236
0.380891
0.379434
0.377987
0.376552
0.375127
0.373712
0.372308
0.370913
0.369529
0.368153
0.366787
0.36543
0.364082
0.362743
0.361413
0.360091
0.358778
0.357473
0.356176
0.354887
0.353606
0.352333
0.351068
0.34981
0.348559
0.347317
0.346081
0.344853
0.343631
0.342417
0.34121
0.340009
0.338816
0.337629
0.336449
0.335275
0.334108
0.332948
0.331793
0.330645
0.329504
0.328368
0.327239
0.326116
0.324999
0.323887
0.322782
0.321683
0.320589
0.319501
0.318419
0.317343
0.316272
0.315207
0.314147
0.313093
0.312044
0.311001
0.309963
0.30893
0.307903
0.306881
0.305864
0.304853
0.303846
0.302845
0.301849
0.300858
0.299872
0.298891
0.297915
0.296944
0.295978
0.295017
0.29406
0.293109
0.292162
0.29122
0.290283
0.289351
0.288423
0.2875
0.286582
0.285669
0.28476
0.283855
0.282955
0.28206
0.281169
0.280283
0.279401
0.278524
0.277651
0.276783
0.275918
0.275059
0.274203
0.273352
0.272505
0.271662
0.270824
0.269989
0.269159
0.268333
0.267511
0.266693
0.26588
0.26507
0.264264
0.263462
0.262665
0.261871
0.261081
0.260295
0.259512
0.258734
0.257959
0.257188
0.256421
0.255657
0.254897
0.254141
0.253388
0.252639
0.251893
0.251151
0.250412
0.249676
0.248944
0.248216
0.24749
0.246768
0.24605
0.245334
0.244621
0.243912
0.243206
0.242503
0.241803
0.241105
0.240411
0.23972
0.239031
0.238345
0.237662
0.236982
0.236304
0.235629
0.234956
0.234286
0.233618
0.232952
0.232289
0.231628
0.230969
0.230312
0.229657
0.229004
0.228353
0.227703
0.227055
0.226409
0.225764
0.225121
0.224479
0.223837
0.223197
0.222558
0.22192
0.221282
0.220645
0.220008
0.219372
0.218736
0.2181
0.217463
0.216827
0.21619
0.215552
0.214914
0.214275
0.213635
0.212994
0.212351
0.211707
0.211062
0.210414
0.209765
0.209114
0.20846
0.207804
0.207146
0.206485
0.205822
0.205155
0.204486
0.203814
0.203138
0.20246
0.201778
0.201093
0.200405
0.199713
0.199018
0.19832
0.197618
0.196914
0.196206
0.195495
0.194781
0.194065
0.193346
0.192625
0.191902
0.191177
0.19045
0.189722
0.188994
0.188265
0.187536
0.186808
0.186081
0.185355
0.184632
0.183911
0.183194
0.182482
0.181774
0.181072
0.180376
0.179688
0.179007
0.178336
0.177675
0.177024
0.176385
0.175759
0.175146
0.174547
0.173963
0.173396
0.172845
0.172311
0.171795
0.171299
0.170821
0.170363
0.169925
0.169507
0.16911
0.168733
0.168376
0.16804
0.167723
0.167425
0.167146
0.166885
0.166642
0.166414
0.166201
0.166003
0.165816
0.165641
0.165476
0.165319
0.165168
0.165023
0.164881
0.164741
0.164601
0.164459
0.164314
0.164164
0.164009
0.163845
0.163673
0.16349
0.163295
0.163087
0.162866
0.162629
0.162377
0.162108
0.161821
0.161517
0.161194
0.160852
0.160491
0.160111
0.159711
0.159291
0.158851
0.158392
0.157913
0.157414
0.156897
0.15636
0.155804
0.155231
0.154639
0.15403
0.153405
0.152762
0.152104
0.15143
0.150742
0.150039
0.149322
0.148593
0.14785
0.147096
0.146331
0.145555
0.144768
0.143973
0.143168
0.142355
0.141535
0.140707
0.139873
0.139033
0.138188
0.137339
0.136485
0.135628
0.134768
0.133906
0.133042
0.132178
0.131313
0.130448
0.129584
0.128722
0.127862
0.127004
0.12615
0.1253
0.124455
0.123615
0.122781
0.121954
0.121134
0.120322
0.119519
0.118725
0.117941
0.117168
0.116405
0.115655
0.114921
0.114224
0.113669
0.270384
0.33057
0.375018
0.402591
0.419755
0.430191
0.436085
0.439146
0.440486
0.440746
0.440312
0.439428
0.438248
0.436874
0.435369
0.433777
0.432128
0.430442
0.428733
0.427012
0.425286
0.423559
0.421836
0.42012
0.418411
0.416713
0.415024
0.413347
0.411682
0.410028
0.408387
0.406758
0.405141
0.403536
0.401943
0.400362
0.398792
0.397235
0.395688
0.394153
0.392629
0.391116
0.389614
0.388122
0.386641
0.38517
0.383708
0.382257
0.380816
0.379384
0.377961
0.376548
0.375144
0.373749
0.372363
0.370986
0.369618
0.368258
0.366906
0.365563
0.364228
0.362901
0.361582
0.360271
0.358967
0.357672
0.356384
0.355104
0.353831
0.352565
0.351307
0.350056
0.348812
0.347575
0.346345
0.345122
0.343906
0.342696
0.341493
0.340297
0.339108
0.337925
0.336748
0.335578
0.334414
0.333256
0.332105
0.330959
0.32982
0.328687
0.32756
0.326438
0.325323
0.324214
0.32311
0.322012
0.32092
0.319833
0.318752
0.317677
0.316607
0.315543
0.314484
0.31343
0.312382
0.311339
0.310302
0.30927
0.308243
0.307221
0.306205
0.305193
0.304187
0.303186
0.30219
0.301199
0.300213
0.299232
0.298256
0.297284
0.296318
0.295357
0.2944
0.293448
0.292501
0.291559
0.290622
0.289689
0.288761
0.287838
0.286919
0.286005
0.285095
0.284191
0.28329
0.282394
0.281503
0.280616
0.279734
0.278856
0.277982
0.277113
0.276248
0.275388
0.274532
0.27368
0.272832
0.271989
0.271149
0.270314
0.269484
0.268657
0.267834
0.267016
0.266201
0.265391
0.264584
0.263782
0.262983
0.262188
0.261398
0.260611
0.259828
0.259048
0.258273
0.257501
0.256733
0.255968
0.255207
0.25445
0.253697
0.252946
0.2522
0.251457
0.250717
0.249981
0.249248
0.248519
0.247792
0.247069
0.24635
0.245633
0.24492
0.24421
0.243502
0.242798
0.242097
0.241399
0.240704
0.240011
0.239322
0.238635
0.237951
0.237269
0.23659
0.235914
0.23524
0.234569
0.2339
0.233233
0.232568
0.231906
0.231246
0.230588
0.229932
0.229277
0.228625
0.227974
0.227324
0.226677
0.22603
0.225385
0.224741
0.224099
0.223457
0.222816
0.222176
0.221536
0.220897
0.220258
0.21962
0.218982
0.218343
0.217704
0.217066
0.216426
0.215786
0.215145
0.214503
0.21386
0.213216
0.212571
0.211923
0.211274
0.210624
0.209971
0.209316
0.208659
0.207999
0.207337
0.206672
0.206004
0.205333
0.204659
0.203982
0.203302
0.202619
0.201932
0.201241
0.200548
0.19985
0.19915
0.198445
0.197738
0.197027
0.196313
0.195596
0.194875
0.194152
0.193426
0.192698
0.191968
0.191235
0.190501
0.189766
0.18903
0.188293
0.187556
0.18682
0.186085
0.185352
0.18462
0.183892
0.183166
0.182445
0.18173
0.181019
0.180316
0.179619
0.178931
0.178252
0.177583
0.176925
0.176279
0.175645
0.175025
0.174419
0.173829
0.173255
0.172698
0.172159
0.171638
0.171136
0.170653
0.170191
0.169748
0.169327
0.168926
0.168545
0.168185
0.167846
0.167526
0.167226
0.166945
0.166681
0.166435
0.166205
0.165991
0.16579
0.165601
0.165424
0.165257
0.165097
0.164944
0.164796
0.164651
0.164508
0.164364
0.164219
0.16407
0.163917
0.163756
0.163588
0.163411
0.163223
0.163023
0.162809
0.162582
0.16234
0.162081
0.161806
0.161513
0.161202
0.160872
0.160524
0.160156
0.159769
0.159362
0.158935
0.158488
0.158022
0.157536
0.157031
0.156507
0.155963
0.155402
0.154822
0.154224
0.15361
0.152978
0.15233
0.151667
0.150988
0.150295
0.149587
0.148866
0.148133
0.147387
0.146629
0.14586
0.145081
0.144292
0.143494
0.142688
0.141873
0.141051
0.140222
0.139388
0.138547
0.137702
0.136852
0.135999
0.135143
0.134284
0.133423
0.132561
0.131699
0.130836
0.129974
0.129114
0.128255
0.127399
0.126545
0.125696
0.124851
0.124011
0.123177
0.122349
0.121528
0.120715
0.11991
0.119114
0.118327
0.117551
0.116786
0.116032
0.115291
0.114566
0.113877
0.11333
0.228178
0.258029
0.288819
0.316247
0.339558
0.358684
0.37377
0.385394
0.394249
0.400926
0.405902
0.409555
0.412183
0.414011
0.415214
0.415923
0.416241
0.416246
0.416
0.41555
0.414935
0.414184
0.413322
0.412369
0.41134
0.410248
0.409104
0.407917
0.406694
0.40544
0.404163
0.402864
0.401549
0.400221
0.398881
0.397533
0.396178
0.394818
0.393455
0.392089
0.390722
0.389355
0.387988
0.386623
0.385259
0.383898
0.38254
0.381185
0.379833
0.378486
0.377143
0.375805
0.374471
0.373142
0.371818
0.3705
0.369187
0.367879
0.366577
0.36528
0.363989
0.362704
0.361425
0.360151
0.358884
0.357622
0.356366
0.355116
0.353872
0.352634
0.351402
0.350176
0.348955
0.347741
0.346532
0.34533
0.344133
0.342942
0.341757
0.340577
0.339404
0.338236
0.337074
0.335917
0.334767
0.333621
0.332482
0.331348
0.33022
0.329097
0.327979
0.326868
0.325761
0.32466
0.323565
0.322474
0.321389
0.32031
0.319236
0.318167
0.317103
0.316044
0.314991
0.313942
0.312899
0.311861
0.310828
0.3098
0.308777
0.307759
0.306746
0.305738
0.304735
0.303737
0.302744
0.301756
0.300772
0.299793
0.298819
0.29785
0.296886
0.295926
0.294971
0.294021
0.293076
0.292135
0.291199
0.290267
0.28934
0.288418
0.2875
0.286586
0.285678
0.284773
0.283873
0.282978
0.282087
0.281201
0.280318
0.279441
0.278567
0.277698
0.276833
0.275973
0.275116
0.274264
0.273417
0.272573
0.271734
0.270898
0.270067
0.26924
0.268417
0.267598
0.266783
0.265972
0.265165
0.264362
0.263562
0.262767
0.261976
0.261188
0.260404
0.259624
0.258848
0.258075
0.257306
0.256541
0.255779
0.255021
0.254266
0.253515
0.252768
0.252024
0.251283
0.250546
0.249812
0.249081
0.248354
0.24763
0.246909
0.246191
0.245477
0.244765
0.244057
0.243352
0.242649
0.24195
0.241253
0.24056
0.239869
0.23918
0.238495
0.237812
0.237132
0.236454
0.235779
0.235106
0.234435
0.233767
0.233101
0.232437
0.231775
0.231115
0.230457
0.229801
0.229147
0.228494
0.227843
0.227193
0.226544
0.225897
0.225251
0.224606
0.223962
0.223319
0.222676
0.222034
0.221393
0.220751
0.22011
0.219469
0.218828
0.218186
0.217544
0.216901
0.216258
0.215614
0.214968
0.214322
0.213674
0.213024
0.212373
0.21172
0.211065
0.210407
0.209748
0.209085
0.208421
0.207753
0.207083
0.206409
0.205732
0.205052
0.204369
0.203682
0.202992
0.202298
0.2016
0.200899
0.200193
0.199484
0.198772
0.198055
0.197335
0.196611
0.195884
0.195153
0.194419
0.193683
0.192943
0.1922
0.191455
0.190709
0.18996
0.18921
0.188459
0.187708
0.186956
0.186205
0.185456
0.184707
0.183961
0.183219
0.182479
0.181744
0.181015
0.180291
0.179574
0.178865
0.178165
0.177474
0.176793
0.176124
0.175467
0.174823
0.174194
0.173579
0.17298
0.172398
0.171833
0.171287
0.170759
0.170251
0.169762
0.169294
0.168846
0.168419
0.168013
0.167627
0.167262
0.166918
0.166593
0.166287
0.166
0.16573
0.165477
0.16524
0.165017
0.164807
0.16461
0.164422
0.164243
0.164071
0.163905
0.163743
0.163584
0.163424
0.163264
0.163101
0.162934
0.162762
0.162582
0.162393
0.162195
0.161985
0.161763
0.161528
0.161278
0.161013
0.160731
0.160433
0.160118
0.159784
0.159432
0.159062
0.158673
0.158264
0.157837
0.15739
0.156924
0.156439
0.155935
0.155413
0.154872
0.154313
0.153737
0.153144
0.152533
0.151907
0.151264
0.150606
0.149934
0.149247
0.148546
0.147833
0.147106
0.146368
0.145619
0.144859
0.144088
0.143309
0.14252
0.141723
0.140918
0.140106
0.139288
0.138464
0.137635
0.1368
0.135962
0.135121
0.134276
0.133429
0.132581
0.131731
0.130882
0.130032
0.129183
0.128335
0.12749
0.126647
0.125808
0.124972
0.124142
0.123316
0.122496
0.121683
0.120877
0.120079
0.119289
0.118508
0.117737
0.116976
0.116227
0.115489
0.114763
0.114054
0.11338
0.112844
0.214641
0.227086
0.24239
0.259351
0.276818
0.293831
0.309621
0.323778
0.336189
0.3469
0.356032
0.36375
0.370227
0.375631
0.380113
0.383808
0.38683
0.389279
0.39124
0.392782
0.393966
0.394842
0.395454
0.395837
0.396022
0.396036
0.3959
0.395634
0.395254
0.394775
0.394208
0.393564
0.392853
0.392082
0.391258
0.390388
0.389477
0.388529
0.38755
0.386541
0.385508
0.384453
0.383378
0.382285
0.381178
0.380057
0.378924
0.377782
0.37663
0.375472
0.374306
0.373135
0.37196
0.370781
0.369599
0.368415
0.367229
0.366042
0.364854
0.363666
0.362478
0.361291
0.360105
0.35892
0.357737
0.356556
0.355377
0.3542
0.353026
0.351854
0.350686
0.34952
0.348358
0.347199
0.346043
0.344891
0.343743
0.342598
0.341458
0.340321
0.339188
0.338059
0.336935
0.335814
0.334698
0.333586
0.332478
0.331374
0.330275
0.32918
0.32809
0.327004
0.325922
0.324845
0.323772
0.322704
0.32164
0.320581
0.319526
0.318476
0.31743
0.316389
0.315352
0.314319
0.313292
0.312268
0.311249
0.310235
0.309225
0.30822
0.307219
0.306223
0.305231
0.304243
0.30326
0.302282
0.301308
0.300338
0.299373
0.298413
0.297456
0.296505
0.295557
0.294614
0.293675
0.292741
0.291811
0.290886
0.289965
0.289048
0.288135
0.287227
0.286323
0.285424
0.284528
0.283637
0.28275
0.281868
0.28099
0.280115
0.279245
0.27838
0.277518
0.27666
0.275807
0.274958
0.274112
0.273271
0.272434
0.271601
0.270772
0.269947
0.269125
0.268308
0.267495
0.266685
0.26588
0.265078
0.26428
0.263486
0.262696
0.261909
0.261126
0.260347
0.259572
0.2588
0.258031
0.257267
0.256505
0.255748
0.254994
0.254243
0.253496
0.252752
0.252011
0.251274
0.25054
0.24981
0.249082
0.248358
0.247637
0.246919
0.246204
0.245493
0.244784
0.244078
0.243375
0.242675
0.241978
0.241284
0.240592
0.239904
0.239217
0.238534
0.237852
0.237174
0.236498
0.235824
0.235152
0.234483
0.233816
0.23315
0.232487
0.231826
0.231167
0.230509
0.229853
0.229199
0.228546
0.227895
0.227245
0.226596
0.225948
0.225301
0.224655
0.22401
0.223365
0.222721
0.222077
0.221433
0.220789
0.220146
0.219501
0.218857
0.218212
0.217566
0.21692
0.216272
0.215623
0.214973
0.214321
0.213668
0.213012
0.212355
0.211695
0.211033
0.210369
0.209702
0.209031
0.208358
0.207682
0.207003
0.20632
0.205633
0.204943
0.204249
0.203551
0.202849
0.202143
0.201433
0.200719
0.200001
0.199278
0.198551
0.19782
0.197085
0.196346
0.195604
0.194857
0.194106
0.193353
0.192595
0.191835
0.191072
0.190307
0.18954
0.188771
0.188
0.187229
0.186458
0.185686
0.184916
0.184147
0.183379
0.182615
0.181854
0.181098
0.180346
0.1796
0.178861
0.17813
0.177407
0.176693
0.17599
0.175299
0.174619
0.173953
0.173301
0.172664
0.172042
0.171438
0.170851
0.170282
0.169732
0.169201
0.168691
0.1682
0.16773
0.167281
0.166853
0.166445
0.166058
0.16569
0.165343
0.165014
0.164704
0.164411
0.164135
0.163874
0.163627
0.163393
0.16317
0.162958
0.162754
0.162557
0.162365
0.162177
0.161991
0.161805
0.161619
0.16143
0.161236
0.161037
0.160831
0.160616
0.160392
0.160157
0.15991
0.159649
0.159375
0.159086
0.158782
0.158462
0.158125
0.157771
0.157399
0.15701
0.156602
0.156177
0.155733
0.155272
0.154792
0.154295
0.153779
0.153247
0.152697
0.15213
0.151547
0.150947
0.150332
0.149702
0.149057
0.148398
0.147725
0.147039
0.146341
0.14563
0.144908
0.144175
0.143432
0.142679
0.141917
0.141146
0.140367
0.139581
0.138788
0.137988
0.137183
0.136373
0.135559
0.13474
0.133919
0.133095
0.132268
0.13144
0.130612
0.129782
0.128954
0.128126
0.1273
0.126476
0.125654
0.124836
0.124022
0.123213
0.122409
0.121611
0.12082
0.120035
0.119259
0.118491
0.117732
0.116983
0.116244
0.115515
0.114799
0.114094
0.113406
0.112752
0.112233
0.210105
0.215481
0.2225
0.231133
0.24111
0.252028
0.263405
0.274793
0.285855
0.296355
0.306139
0.315129
0.323299
0.330659
0.337244
0.343102
0.348287
0.352858
0.356871
0.360379
0.363432
0.366077
0.368355
0.370305
0.37196
0.373351
0.374505
0.375445
0.376194
0.376771
0.377193
0.377475
0.37763
0.377672
0.37761
0.377455
0.377216
0.376899
0.376513
0.376064
0.375557
0.374998
0.374391
0.373741
0.373051
0.372325
0.371566
0.370777
0.36996
0.369119
0.368255
0.36737
0.366467
0.365546
0.36461
0.363659
0.362696
0.36172
0.360735
0.35974
0.358736
0.357724
0.356706
0.355681
0.354652
0.353617
0.352578
0.351535
0.35049
0.349441
0.348391
0.347338
0.346284
0.34523
0.344174
0.343118
0.342062
0.341006
0.33995
0.338895
0.337841
0.336788
0.335736
0.334685
0.333636
0.332589
0.331544
0.330501
0.329459
0.328421
0.327384
0.32635
0.325318
0.32429
0.323263
0.32224
0.32122
0.320202
0.319188
0.318177
0.317169
0.316164
0.315162
0.314164
0.313169
0.312177
0.311189
0.310204
0.309223
0.308245
0.307271
0.306301
0.305334
0.304371
0.303411
0.302455
0.301503
0.300555
0.29961
0.298669
0.297732
0.296799
0.295869
0.294944
0.294022
0.293104
0.29219
0.291279
0.290373
0.28947
0.288572
0.287677
0.286786
0.285899
0.285016
0.284136
0.283261
0.282389
0.281522
0.280658
0.279798
0.278941
0.278089
0.277241
0.276396
0.275555
0.274718
0.273885
0.273055
0.27223
0.271408
0.270589
0.269775
0.268964
0.268157
0.267354
0.266554
0.265758
0.264966
0.264177
0.263392
0.26261
0.261832
0.261057
0.260286
0.259518
0.258754
0.257994
0.257236
0.256482
0.255732
0.254984
0.25424
0.2535
0.252762
0.252028
0.251297
0.250569
0.249844
0.249123
0.248404
0.247688
0.246976
0.246266
0.245559
0.244855
0.244154
0.243456
0.24276
0.242067
0.241377
0.24069
0.240005
0.239322
0.238642
0.237964
0.237289
0.236616
0.235945
0.235276
0.234609
0.233945
0.233282
0.232621
0.231962
0.231305
0.230649
0.229994
0.229341
0.22869
0.228039
0.22739
0.226742
0.226094
0.225447
0.224801
0.224156
0.22351
0.222865
0.22222
0.221575
0.22093
0.220284
0.219638
0.218991
0.218343
0.217695
0.217045
0.216394
0.215741
0.215086
0.21443
0.213771
0.213111
0.212448
0.211782
0.211114
0.210442
0.209768
0.20909
0.208409
0.207724
0.207036
0.206343
0.205647
0.204947
0.204242
0.203533
0.202819
0.202101
0.201379
0.200651
0.199919
0.199182
0.198441
0.197695
0.196944
0.196189
0.195429
0.194665
0.193896
0.193124
0.192348
0.191568
0.190785
0.189999
0.18921
0.188419
0.187626
0.186831
0.186036
0.185241
0.184445
0.183651
0.182858
0.182067
0.181279
0.180495
0.179715
0.178941
0.178173
0.177413
0.17666
0.175916
0.175182
0.17446
0.173749
0.173051
0.172366
0.171697
0.171043
0.170405
0.169785
0.169183
0.168599
0.168034
0.167489
0.166964
0.16646
0.165976
0.165513
0.16507
0.164647
0.164245
0.163862
0.163498
0.163153
0.162824
0.162512
0.162216
0.161934
0.161664
0.161407
0.161159
0.16092
0.160688
0.160462
0.16024
0.16002
0.159802
0.159582
0.159361
0.159135
0.158905
0.158669
0.158424
0.158171
0.157908
0.157634
0.157348
0.157049
0.156736
0.156409
0.156068
0.15571
0.155337
0.154948
0.154542
0.15412
0.153681
0.153225
0.152753
0.152263
0.151758
0.151236
0.150697
0.150143
0.149574
0.148989
0.14839
0.147776
0.147149
0.146507
0.145853
0.145187
0.144508
0.143818
0.143117
0.142406
0.141685
0.140954
0.140215
0.139468
0.138713
0.137951
0.137182
0.136408
0.135628
0.134843
0.134054
0.133262
0.132466
0.131668
0.130868
0.130067
0.129265
0.128462
0.127661
0.12686
0.126061
0.125264
0.124469
0.123679
0.122892
0.12211
0.121333
0.120563
0.119798
0.119041
0.118292
0.11755
0.116818
0.116095
0.115383
0.114681
0.11399
0.113311
0.112648
0.112019
0.111518
0.208358
0.2109
0.214191
0.218357
0.223453
0.229445
0.236204
0.243542
0.251255
0.25915
0.267054
0.274823
0.282346
0.289542
0.296355
0.302752
0.308717
0.314247
0.319348
0.324033
0.328319
0.332227
0.335778
0.338996
0.341901
0.344516
0.346862
0.348958
0.350824
0.352476
0.353931
0.355203
0.356308
0.357258
0.358064
0.358738
0.35929
0.359729
0.360064
0.360302
0.360451
0.360518
0.360508
0.360428
0.360282
0.360075
0.359812
0.359497
0.359133
0.358724
0.358274
0.357784
0.357259
0.3567
0.35611
0.355492
0.354846
0.354175
0.353482
0.352766
0.352031
0.351277
0.350506
0.349719
0.348918
0.348102
0.347274
0.346434
0.345583
0.344722
0.343852
0.342973
0.342086
0.341192
0.340292
0.339385
0.338473
0.337556
0.336635
0.335709
0.33478
0.333847
0.332911
0.331973
0.331032
0.33009
0.329146
0.3282
0.327254
0.326306
0.325358
0.324409
0.323461
0.322512
0.321563
0.320615
0.319667
0.31872
0.317774
0.316828
0.315884
0.314941
0.313999
0.313059
0.31212
0.311183
0.310248
0.309315
0.308383
0.307454
0.306527
0.305602
0.304679
0.303758
0.30284
0.301925
0.301012
0.300102
0.299194
0.298289
0.297386
0.296487
0.29559
0.294696
0.293806
0.292918
0.292033
0.291151
0.290272
0.289396
0.288524
0.287654
0.286788
0.285925
0.285065
0.284208
0.283355
0.282505
0.281658
0.280814
0.279974
0.279137
0.278303
0.277473
0.276646
0.275822
0.275002
0.274185
0.273371
0.272561
0.271754
0.27095
0.27015
0.269353
0.268559
0.267769
0.266982
0.266198
0.265418
0.264641
0.263867
0.263097
0.262329
0.261565
0.260804
0.260047
0.259292
0.258541
0.257793
0.257048
0.256306
0.255567
0.254832
0.254099
0.253369
0.252643
0.251919
0.251198
0.25048
0.249765
0.249053
0.248344
0.247638
0.246934
0.246233
0.245535
0.244839
0.244146
0.243456
0.242768
0.242083
0.2414
0.24072
0.240042
0.239366
0.238692
0.238021
0.237352
0.236684
0.236019
0.235356
0.234695
0.234035
0.233377
0.232721
0.232067
0.231414
0.230762
0.230111
0.229462
0.228814
0.228166
0.22752
0.226874
0.226229
0.225585
0.224941
0.224297
0.223653
0.223009
0.222365
0.22172
0.221075
0.220429
0.219783
0.219135
0.218487
0.217837
0.217185
0.216532
0.215877
0.215219
0.21456
0.213898
0.213233
0.212566
0.211896
0.211222
0.210546
0.209865
0.209181
0.208493
0.207801
0.207105
0.206405
0.2057
0.20499
0.204276
0.203556
0.202832
0.202103
0.201368
0.200628
0.199883
0.199133
0.198377
0.197616
0.19685
0.196079
0.195302
0.194521
0.193734
0.192943
0.192147
0.191347
0.190543
0.189735
0.188924
0.18811
0.187293
0.186474
0.185653
0.184832
0.184009
0.183187
0.182365
0.181545
0.180727
0.179912
0.179101
0.178295
0.177494
0.176699
0.175912
0.175133
0.174363
0.173603
0.172855
0.172119
0.171396
0.170687
0.169994
0.169316
0.168655
0.168011
0.167386
0.166779
0.166192
0.165624
0.165077
0.16455
0.164043
0.163557
0.163091
0.162645
0.162218
0.161811
0.161422
0.16105
0.160695
0.160356
0.160031
0.159719
0.15942
0.159131
0.158851
0.158579
0.158313
0.158052
0.157794
0.157538
0.157282
0.157025
0.156765
0.156502
0.156233
0.155957
0.155674
0.155382
0.155081
0.154768
0.154445
0.154109
0.15376
0.153398
0.153022
0.152632
0.152227
0.151807
0.151372
0.150922
0.150456
0.149976
0.14948
0.14897
0.148444
0.147904
0.14735
0.146782
0.1462
0.145604
0.144996
0.144375
0.143742
0.143097
0.142441
0.141774
0.141097
0.140411
0.139715
0.13901
0.138297
0.137576
0.136849
0.136114
0.135374
0.134627
0.133876
0.133121
0.132361
0.131598
0.130833
0.130065
0.129295
0.128524
0.127752
0.126981
0.12621
0.12544
0.124672
0.123906
0.123143
0.122384
0.121628
0.120877
0.120132
0.119392
0.118658
0.117932
0.117213
0.116502
0.1158
0.115108
0.114425
0.113752
0.113091
0.112441
0.111806
0.111204
0.110724
0.207573
0.208876
0.210512
0.212559
0.215095
0.218177
0.22182
0.225994
0.230642
0.235685
0.241032
0.246591
0.25227
0.257988
0.263671
0.26926
0.274706
0.27997
0.285024
0.289849
0.294431
0.298763
0.302843
0.306672
0.310254
0.313595
0.316702
0.319585
0.322253
0.324715
0.326982
0.329064
0.330969
0.332709
0.334291
0.335726
0.337021
0.338185
0.339225
0.34015
0.340965
0.341677
0.342293
0.342818
0.343258
0.343618
0.343902
0.344116
0.344263
0.344347
0.344373
0.344343
0.344262
0.344131
0.343955
0.343735
0.343474
0.343175
0.34284
0.342472
0.342071
0.34164
0.341181
0.340695
0.340184
0.33965
0.339093
0.338515
0.337918
0.337303
0.336669
0.33602
0.335355
0.334676
0.333983
0.333277
0.33256
0.331831
0.331091
0.330342
0.329584
0.328816
0.328041
0.327258
0.326469
0.325672
0.32487
0.324061
0.323248
0.322429
0.321607
0.32078
0.319949
0.319114
0.318277
0.317436
0.316593
0.315748
0.314901
0.314051
0.3132
0.312348
0.311494
0.310639
0.309784
0.308928
0.308071
0.307214
0.306357
0.3055
0.304643
0.303786
0.30293
0.302075
0.30122
0.300365
0.299512
0.29866
0.297809
0.296959
0.29611
0.295263
0.294417
0.293573
0.29273
0.291889
0.29105
0.290213
0.289378
0.288544
0.287713
0.286884
0.286057
0.285232
0.284409
0.283589
0.282771
0.281956
0.281142
0.280332
0.279523
0.278718
0.277915
0.277114
0.276316
0.275521
0.274728
0.273938
0.273151
0.272366
0.271585
0.270805
0.270029
0.269256
0.268485
0.267717
0.266952
0.266189
0.26543
0.264673
0.263919
0.263168
0.262419
0.261674
0.260931
0.260191
0.259454
0.258719
0.257987
0.257258
0.256532
0.255809
0.255088
0.25437
0.253655
0.252942
0.252232
0.251525
0.25082
0.250118
0.249418
0.248721
0.248026
0.247334
0.246645
0.245958
0.245273
0.24459
0.24391
0.243233
0.242557
0.241884
0.241213
0.240544
0.239877
0.239212
0.238549
0.237889
0.237229
0.236572
0.235917
0.235263
0.234611
0.23396
0.233311
0.232663
0.232016
0.231371
0.230727
0.230084
0.229441
0.2288
0.228159
0.227518
0.226879
0.226239
0.2256
0.22496
0.224321
0.223682
0.223042
0.222401
0.22176
0.221118
0.220475
0.219831
0.219185
0.218538
0.21789
0.217239
0.216586
0.215931
0.215274
0.214614
0.213951
0.213285
0.212616
0.211943
0.211267
0.210587
0.209904
0.209215
0.208523
0.207826
0.207124
0.206418
0.205706
0.20499
0.204268
0.20354
0.202807
0.202069
0.201324
0.200574
0.199818
0.199055
0.198287
0.197513
0.196733
0.195947
0.195155
0.194357
0.193554
0.192745
0.191931
0.191111
0.190287
0.189458
0.188625
0.187788
0.186948
0.186104
0.185258
0.18441
0.183561
0.18271
0.181859
0.181009
0.18016
0.179313
0.178468
0.177628
0.176791
0.175961
0.175137
0.17432
0.173511
0.172712
0.171923
0.171146
0.170381
0.169629
0.168892
0.16817
0.167464
0.166775
0.166103
0.16545
0.164816
0.164201
0.163606
0.163031
0.162476
0.161942
0.161427
0.160933
0.160458
0.160003
0.159566
0.159147
0.158745
0.158359
0.157987
0.15763
0.157286
0.156952
0.156629
0.156314
0.156006
0.155704
0.155407
0.155112
0.154818
0.154525
0.15423
0.153932
0.153631
0.153324
0.153011
0.152691
0.152363
0.152025
0.151678
0.15132
0.150951
0.15057
0.150177
0.149771
0.149352
0.14892
0.148474
0.148015
0.147543
0.147057
0.146557
0.146044
0.145518
0.144979
0.144427
0.143863
0.143286
0.142697
0.142097
0.141486
0.140864
0.140231
0.139589
0.138937
0.138276
0.137606
0.136928
0.136243
0.135551
0.134852
0.134147
0.133436
0.13272
0.131999
0.131275
0.130546
0.129815
0.129081
0.128346
0.127608
0.12687
0.126131
0.125393
0.124655
0.123919
0.123184
0.122452
0.121722
0.120996
0.120274
0.119557
0.118845
0.118139
0.117438
0.116745
0.116059
0.115381
0.114712
0.114051
0.1134
0.112759
0.112129
0.11151
0.110905
0.110332
0.109875
0.207161
0.207854
0.208705
0.209746
0.211023
0.212585
0.214469
0.216694
0.219267
0.222177
0.225401
0.228905
0.232647
0.236582
0.240661
0.24484
0.249073
0.253321
0.257548
0.261724
0.265822
0.269821
0.273703
0.277455
0.281067
0.284531
0.287843
0.290999
0.293999
0.296844
0.299534
0.302072
0.304462
0.306708
0.308813
0.310782
0.312621
0.314333
0.315925
0.3174
0.318764
0.320021
0.321176
0.322235
0.3232
0.324077
0.32487
0.325582
0.326218
0.326781
0.327275
0.327703
0.328068
0.328373
0.328622
0.328817
0.32896
0.329055
0.329103
0.329107
0.32907
0.328992
0.328877
0.328726
0.32854
0.328322
0.328073
0.327795
0.327489
0.327156
0.326798
0.326416
0.326011
0.325585
0.325138
0.324671
0.324186
0.323683
0.323164
0.322628
0.322078
0.321513
0.320935
0.320343
0.31974
0.319125
0.318499
0.317862
0.317216
0.31656
0.315895
0.315223
0.314542
0.313854
0.313158
0.312456
0.311748
0.311034
0.310315
0.30959
0.308861
0.308127
0.307389
0.306646
0.305901
0.305151
0.304399
0.303643
0.302885
0.302125
0.301362
0.300597
0.299831
0.299062
0.298293
0.297522
0.296749
0.295976
0.295202
0.294428
0.293653
0.292877
0.292102
0.291326
0.29055
0.289774
0.288999
0.288224
0.28745
0.286676
0.285902
0.28513
0.284358
0.283587
0.282817
0.282049
0.281281
0.280515
0.27975
0.278986
0.278224
0.277464
0.276705
0.275947
0.275191
0.274437
0.273685
0.272934
0.272185
0.271438
0.270693
0.26995
0.269209
0.26847
0.267733
0.266998
0.266265
0.265535
0.264806
0.26408
0.263355
0.262633
0.261913
0.261195
0.26048
0.259767
0.259056
0.258347
0.25764
0.256936
0.256234
0.255534
0.254836
0.254141
0.253447
0.252756
0.252068
0.251381
0.250697
0.250015
0.249335
0.248657
0.247981
0.247307
0.246636
0.245966
0.245299
0.244634
0.24397
0.243309
0.242649
0.241992
0.241336
0.240682
0.24003
0.239379
0.238731
0.238084
0.237438
0.236794
0.236152
0.235511
0.234871
0.234233
0.233595
0.232959
0.232324
0.23169
0.231057
0.230424
0.229793
0.229161
0.228531
0.2279
0.22727
0.22664
0.22601
0.22538
0.224749
0.224118
0.223487
0.222854
0.222221
0.221587
0.220952
0.220315
0.219677
0.219037
0.218395
0.217751
0.217105
0.216456
0.215804
0.21515
0.214493
0.213832
0.213168
0.2125
0.211829
0.211153
0.210473
0.209789
0.2091
0.208406
0.207708
0.207004
0.206294
0.205579
0.204858
0.204132
0.203399
0.20266
0.201915
0.201164
0.200406
0.199641
0.19887
0.198092
0.197307
0.196516
0.195718
0.194913
0.194102
0.193284
0.19246
0.191629
0.190793
0.189951
0.189103
0.18825
0.187392
0.186529
0.185663
0.184793
0.18392
0.183044
0.182166
0.181287
0.180407
0.179528
0.178649
0.177772
0.176898
0.176027
0.17516
0.174299
0.173444
0.172596
0.171757
0.170927
0.170108
0.1693
0.168504
0.167722
0.166954
0.166202
0.165466
0.164747
0.164046
0.163363
0.1627
0.162056
0.161431
0.160827
0.160243
0.159679
0.159135
0.158611
0.158106
0.15762
0.157153
0.156703
0.156269
0.155851
0.155448
0.155058
0.15468
0.154313
0.153956
0.153606
0.153264
0.152927
0.152594
0.152263
0.151934
0.151605
0.151274
0.150941
0.150605
0.150264
0.149917
0.149563
0.149202
0.148833
0.148455
0.148067
0.147669
0.147261
0.146841
0.146411
0.145969
0.145515
0.145049
0.144571
0.144082
0.14358
0.143067
0.142542
0.142006
0.141459
0.1409
0.140331
0.139751
0.139161
0.138561
0.137952
0.137334
0.136707
0.136071
0.135428
0.134778
0.134121
0.133457
0.132787
0.132112
0.131431
0.130746
0.130057
0.129364
0.128667
0.127969
0.127268
0.126565
0.125861
0.125156
0.124452
0.123747
0.123044
0.122342
0.121641
0.120944
0.120249
0.119558
0.11887
0.118188
0.11751
0.116839
0.116173
0.115514
0.114862
0.114218
0.113582
0.112955
0.112337
0.111729
0.111131
0.110543
0.10997
0.109426
0.108992
0.206917
0.20727
0.207706
0.208235
0.20888
0.209666
0.210621
0.211766
0.213121
0.214696
0.216496
0.218521
0.22076
0.2232
0.225822
0.228604
0.231521
0.234548
0.23766
0.240831
0.244039
0.247261
0.250478
0.253672
0.256827
0.25993
0.262969
0.265935
0.268819
0.271616
0.274319
0.276926
0.279434
0.281841
0.284146
0.286349
0.288451
0.290451
0.292353
0.294156
0.295864
0.297478
0.299
0.300434
0.301781
0.303045
0.304227
0.305331
0.306358
0.307313
0.308197
0.309013
0.309763
0.31045
0.311076
0.311644
0.312156
0.312614
0.313021
0.313377
0.313686
0.31395
0.314169
0.314346
0.314483
0.314581
0.314642
0.314668
0.314659
0.314618
0.314545
0.314442
0.314311
0.314152
0.313966
0.313756
0.313521