/*--------------------------------*- C++ -*----------------------------------*\
| =========                 |                                                 |
| \\      /  F ield         | OpenFOAM: The Open Source CFD Toolbox           |
|  \\    /   O peration     | Version:  2506                                  |
|   \\  /    A nd           | Website:  www.openfoam.com                      |
|    \\/     M anipulation  |                                                 |
\*---------------------------------------------------------------------------*/
FoamFile
{
    version     2.0;
    format      ascii;
    arch        "LSB;label=32;scalar=64";
    class       volScalarField;
    location    "300";
    object      k;
}
// * * * * * * * * * * * * * * * * * * * * * * * * * * * * * * * * * * * * * //

dimensions      [0 2 -2 0 0 0 0];

internalField   nonuniform List<scalar> 
131949
(
0.559553
0.610609
0.612362
0.607639
0.603737
0.600649
0.598019
0.595758
0.593789
0.592027
0.590416
0.588918
0.587507
0.586164
0.584874
0.583627
0.582415
0.581232
0.580074
0.578937
0.577817
0.576713
0.575622
0.574542
0.573474
0.572414
0.571363
0.57032
0.569284
0.568254
0.567231
0.566213
0.5652
0.564192
0.563189
0.562191
0.561196
0.560206
0.55922
0.558238
0.557259
0.556285
0.555313
0.554345
0.553381
0.552419
0.551461
0.550506
0.549555
0.548606
0.54766
0.546718
0.545778
0.544841
0.543908
0.542977
0.542048
0.541123
0.540201
0.539281
0.538364
0.53745
0.536539
0.53563
0.534724
0.53382
0.53292
0.532021
0.531126
0.530233
0.529343
0.528455
0.52757
0.526688
0.525808
0.52493
0.524055
0.523183
0.522313
0.521445
0.52058
0.519718
0.518858
0.518
0.517145
0.516292
0.515442
0.514594
0.513748
0.512905
0.512065
0.511226
0.51039
0.509557
0.508726
0.507897
0.507071
0.506246
0.505425
0.504605
0.503789
0.502974
0.502162
0.501352
0.500544
0.499739
0.498937
0.498136
0.497338
0.496542
0.495749
0.494958
0.49417
0.493384
0.4926
0.491818
0.491039
0.490263
0.489489
0.488717
0.487948
0.487181
0.486416
0.485654
0.484894
0.484137
0.483382
0.482629
0.481879
0.481131
0.480386
0.479643
0.478902
0.478164
0.477429
0.476695
0.475964
0.475236
0.474509
0.473786
0.473064
0.472345
0.471628
0.470914
0.470202
0.469492
0.468785
0.46808
0.467377
0.466676
0.465978
0.465282
0.464588
0.463897
0.463207
0.46252
0.461835
0.461152
0.460471
0.459793
0.459116
0.458442
0.457769
0.457099
0.45643
0.455764
0.455099
0.454437
0.453776
0.453117
0.45246
0.451804
0.451151
0.450499
0.449849
0.4492
0.448553
0.447907
0.447263
0.44662
0.445979
0.445339
0.4447
0.444062
0.443426
0.44279
0.442155
0.441522
0.440889
0.440256
0.439624
0.438993
0.438362
0.437731
0.4371
0.436469
0.435838
0.435207
0.434575
0.433942
0.433308
0.432673
0.432037
0.431399
0.43076
0.430118
0.429474
0.428828
0.428179
0.427526
0.42687
0.426211
0.425547
0.424879
0.424206
0.423528
0.422845
0.422155
0.42146
0.420758
0.420048
0.419332
0.418607
0.417874
0.417133
0.416382
0.415622
0.414852
0.414072
0.413281
0.41248
0.411667
0.410842
0.410005
0.409156
0.408294
0.407419
0.406531
0.40563
0.404715
0.403786
0.402844
0.401887
0.400917
0.399933
0.398935
0.397923
0.396897
0.395858
0.394806
0.39374
0.392662
0.391572
0.39047
0.389356
0.388232
0.387097
0.385953
0.384801
0.38364
0.382472
0.381298
0.380119
0.378936
0.37775
0.376562
0.375374
0.374187
0.373001
0.371819
0.370643
0.369472
0.36831
0.367158
0.366017
0.36489
0.363776
0.36268
0.361602
0.360543
0.359506
0.358492
0.357503
0.356541
0.355606
0.354701
0.353827
0.352984
0.352174
0.351398
0.350656
0.34995
0.349279
0.348644
0.348045
0.347482
0.346953
0.346459
0.345999
0.34557
0.345173
0.344805
0.344464
0.344148
0.343856
0.343584
0.34333
0.343092
0.342866
0.342649
0.34244
0.342233
0.342028
0.341819
0.341606
0.341384
0.341151
0.340904
0.340641
0.340359
0.340056
0.339729
0.339378
0.339
0.338594
0.338158
0.337692
0.337193
0.336663
0.3361
0.335504
0.334874
0.334211
0.333514
0.332785
0.332024
0.33123
0.330406
0.329551
0.328666
0.327754
0.326814
0.325847
0.324856
0.323841
0.322804
0.321746
0.320668
0.319573
0.31846
0.317332
0.316191
0.315037
0.313872
0.312698
0.311516
0.310328
0.309135
0.307938
0.30674
0.30554
0.304342
0.303145
0.301952
0.300764
0.299582
0.298408
0.297242
0.296086
0.294942
0.293809
0.29269
0.291586
0.290498
0.289426
0.288372
0.287336
0.28632
0.285325
0.284351
0.283399
0.28247
0.281565
0.280684
0.279827
0.278996
0.27819
0.27741
0.276656
0.275929
0.275229
0.274555
0.273908
0.273288
0.272694
0.272127
0.271587
0.271074
0.270604
0.270237
0.437505
0.49331
0.531806
0.55433
0.567796
0.575795
0.580292
0.582709
0.583917
0.584387
0.58439
0.58409
0.583591
0.582956
0.582227
0.58143
0.580585
0.579704
0.578797
0.57787
0.576929
0.575977
0.575017
0.574051
0.573081
0.572107
0.571132
0.570155
0.569177
0.5682
0.567222
0.566246
0.56527
0.564296
0.563322
0.562351
0.561381
0.560413
0.559447
0.558483
0.557521
0.556561
0.555604
0.554648
0.553695
0.552744
0.551796
0.55085
0.549906
0.548964
0.548026
0.547089
0.546155
0.545224
0.544294
0.543368
0.542444
0.541522
0.540603
0.539686
0.538772
0.53786
0.536951
0.536044
0.53514
0.534238
0.533339
0.532442
0.531548
0.530656
0.529767
0.52888
0.527995
0.527113
0.526233
0.525356
0.524482
0.523609
0.522739
0.521872
0.521007
0.520144
0.519284
0.518426
0.51757
0.516717
0.515866
0.515018
0.514172
0.513328
0.512487
0.511648
0.510811
0.509977
0.509145
0.508316
0.507488
0.506664
0.505841
0.505021
0.504203
0.503388
0.502574
0.501764
0.500955
0.500149
0.499345
0.498544
0.497745
0.496948
0.496154
0.495362
0.494572
0.493785
0.493
0.492218
0.491438
0.49066
0.489885
0.489112
0.488342
0.487574
0.486808
0.486045
0.485284
0.484526
0.48377
0.483016
0.482265
0.481516
0.48077
0.480026
0.479284
0.478545
0.477808
0.477074
0.476342
0.475612
0.474885
0.47416
0.473437
0.472717
0.472
0.471284
0.470571
0.46986
0.469152
0.468446
0.467742
0.467041
0.466341
0.465644
0.46495
0.464257
0.463567
0.462879
0.462193
0.461509
0.460827
0.460147
0.45947
0.458794
0.458121
0.457449
0.45678
0.456113
0.455447
0.454783
0.454122
0.453462
0.452804
0.452147
0.451492
0.45084
0.450188
0.449538
0.44889
0.448244
0.447598
0.446955
0.446312
0.445671
0.445031
0.444392
0.443755
0.443118
0.442482
0.441847
0.441213
0.440579
0.439946
0.439313
0.438681
0.438048
0.437416
0.436784
0.436151
0.435518
0.434884
0.43425
0.433614
0.432977
0.432339
0.431699
0.431058
0.430414
0.429768
0.429119
0.428467
0.427812
0.427154
0.426491
0.425825
0.425154
0.424478
0.423796
0.423109
0.422416
0.421717
0.421011
0.420298
0.419577
0.418848
0.41811
0.417364
0.416608
0.415843
0.415068
0.414283
0.413486
0.412678
0.411859
0.411028
0.410185
0.409329
0.40846
0.407578
0.406683
0.405774
0.404852
0.403916
0.402965
0.402001
0.401022
0.40003
0.399023
0.398002
0.396968
0.39592
0.394858
0.393783
0.392696
0.391596
0.390484
0.389361
0.388226
0.387082
0.385928
0.384765
0.383594
0.382416
0.381232
0.380043
0.37885
0.377654
0.376456
0.375258
0.37406
0.372865
0.371673
0.370487
0.369307
0.368136
0.366974
0.365824
0.364688
0.363566
0.362461
0.361375
0.360309
0.359264
0.358244
0.357248
0.356279
0.355338
0.354427
0.353548
0.3527
0.351885
0.351105
0.35036
0.34965
0.348976
0.348338
0.347736
0.34717
0.34664
0.346144
0.345681
0.345251
0.344852
0.344483
0.34414
0.343823
0.343529
0.343256
0.343
0.342759
0.342531
0.342312
0.3421
0.34189
0.341681
0.341469
0.341252
0.341025
0.340788
0.340536
0.340267
0.339979
0.33967
0.339337
0.33898
0.338595
0.338182
0.337739
0.337265
0.336759
0.336222
0.335651
0.335047
0.33441
0.33374
0.333036
0.3323
0.331532
0.330731
0.329901
0.32904
0.32815
0.327231
0.326286
0.325315
0.32432
0.323301
0.322261
0.3212
0.32012
0.319022
0.317908
0.316779
0.315637
0.314483
0.313319
0.312146
0.310966
0.30978
0.308589
0.307396
0.306201
0.305006
0.303812
0.302621
0.301434
0.300252
0.299077
0.29791
0.296752
0.295604
0.294468
0.293345
0.292236
0.291142
0.290064
0.289003
0.28796
0.286936
0.285933
0.28495
0.283988
0.283049
0.282133
0.281241
0.280373
0.27953
0.278712
0.27792
0.277154
0.276415
0.275701
0.275015
0.274354
0.273721
0.273114
0.272533
0.271979
0.271451
0.270951
0.270492
0.270133
0.398944
0.430836
0.461658
0.48759
0.508595
0.525139
0.537744
0.547191
0.554242
0.55949
0.563379
0.566242
0.568328
0.569821
0.570857
0.571534
0.571931
0.572103
0.572096
0.571943
0.57167
0.5713
0.570849
0.57033
0.569754
0.56913
0.568465
0.567767
0.567038
0.566285
0.565509
0.564716
0.563906
0.563082
0.562246
0.5614
0.560545
0.559683
0.558813
0.557938
0.557059
0.556175
0.555287
0.554397
0.553504
0.552609
0.551712
0.550815
0.549916
0.549017
0.548117
0.547218
0.546318
0.545419
0.54452
0.543621
0.542724
0.541827
0.540931
0.540036
0.539143
0.538251
0.53736
0.53647
0.535582
0.534696
0.533811
0.532927
0.532046
0.531166
0.530288
0.529412
0.528538
0.527665
0.526794
0.525926
0.525059
0.524194
0.523332
0.522471
0.521612
0.520755
0.519901
0.519048
0.518197
0.517349
0.516503
0.515658
0.514816
0.513976
0.513138
0.512303
0.511469
0.510638
0.509808
0.508981
0.508156
0.507333
0.506513
0.505694
0.504878
0.504064
0.503252
0.502443
0.501635
0.50083
0.500027
0.499227
0.498428
0.497632
0.496839
0.496047
0.495258
0.494471
0.493686
0.492904
0.492124
0.491346
0.490571
0.489798
0.489027
0.488259
0.487493
0.48673
0.485968
0.48521
0.484453
0.483699
0.482947
0.482198
0.481451
0.480706
0.479964
0.479224
0.478487
0.477751
0.477019
0.476288
0.47556
0.474834
0.474111
0.47339
0.472671
0.471955
0.471241
0.470529
0.46982
0.469113
0.468408
0.467706
0.467005
0.466307
0.465611
0.464918
0.464226
0.463537
0.46285
0.462165
0.461482
0.460802
0.460123
0.459446
0.458772
0.458099
0.457428
0.45676
0.456093
0.455428
0.454765
0.454104
0.453445
0.452787
0.452131
0.451477
0.450824
0.450173
0.449524
0.448876
0.448229
0.447584
0.44694
0.446298
0.445656
0.445016
0.444377
0.443739
0.443101
0.442465
0.441829
0.441194
0.440559
0.439925
0.43929
0.438656
0.438022
0.437388
0.436754
0.436119
0.435483
0.434846
0.434209
0.43357
0.432929
0.432287
0.431643
0.430997
0.430349
0.429697
0.429043
0.428385
0.427724
0.427058
0.426388
0.425714
0.425035
0.42435
0.423659
0.422962
0.422259
0.421549
0.420831
0.420106
0.419373
0.41863
0.417879
0.417119
0.416348
0.415568
0.414776
0.413974
0.41316
0.412335
0.411497
0.410647
0.409784
0.408908
0.408019
0.407116
0.4062
0.405269
0.404324
0.403365
0.402391
0.401404
0.400401
0.399385
0.398354
0.397308
0.396249
0.395176
0.39409
0.39299
0.391878
0.390753
0.389616
0.388469
0.38731
0.386142
0.384964
0.383778
0.382584
0.381383
0.380177
0.378967
0.377753
0.376536
0.375319
0.374102
0.372887
0.371675
0.370467
0.369266
0.368073
0.366888
0.365715
0.364555
0.363409
0.362279
0.361167
0.360075
0.359005
0.357957
0.356934
0.355937
0.354968
0.354029
0.35312
0.352243
0.351399
0.350589
0.349814
0.349075
0.348371
0.347703
0.347072
0.346476
0.345916
0.345391
0.3449
0.344442
0.344015
0.343618
0.343248
0.342905
0.342586
0.342287
0.342008
0.341744
0.341494
0.341254
0.341021
0.340792
0.340564
0.340335
0.340101
0.339859
0.339607
0.339342
0.339061
0.338762
0.338443
0.338101
0.337735
0.337343
0.336924
0.336476
0.335998
0.335489
0.334949
0.334377
0.333773
0.333136
0.332467
0.331765
0.331032
0.330267
0.329472
0.328646
0.327791
0.326908
0.325997
0.325061
0.324099
0.323113
0.322104
0.321075
0.320025
0.318957
0.317872
0.316771
0.315656
0.314528
0.313389
0.31224
0.311083
0.309919
0.30875
0.307576
0.3064
0.305223
0.304046
0.302871
0.301699
0.300531
0.299368
0.298213
0.297066
0.295928
0.294802
0.293686
0.292584
0.291496
0.290423
0.289367
0.288327
0.287306
0.286304
0.285322
0.28436
0.283421
0.282503
0.281609
0.280738
0.279891
0.279069
0.278272
0.277501
0.276755
0.276035
0.275342
0.274674
0.274033
0.273418
0.272829
0.272266
0.271728
0.271216
0.270732
0.270288
0.26994
0.384718
0.399671
0.417136
0.43556
0.453682
0.470599
0.485706
0.498791
0.509924
0.519286
0.527097
0.533582
0.538949
0.543379
0.547029
0.550026
0.552478
0.554473
0.556084
0.557371
0.558382
0.559159
0.559735
0.56014
0.560396
0.560523
0.560539
0.560458
0.560291
0.56005
0.559742
0.559377
0.558961
0.558499
0.557996
0.557457
0.556886
0.556287
0.555661
0.555013
0.554344
0.553656
0.552951
0.552232
0.551498
0.550753
0.549997
0.54923
0.548455
0.547672
0.546881
0.546084
0.545281
0.544473
0.54366
0.542843
0.542023
0.541199
0.540372
0.539543
0.538711
0.537878
0.537042
0.536206
0.535368
0.53453
0.53369
0.53285
0.53201
0.53117
0.530329
0.529488
0.528648
0.527808
0.526969
0.526129
0.525291
0.524453
0.523616
0.52278
0.521945
0.521111
0.520278
0.519446
0.518615
0.517785
0.516957
0.51613
0.515305
0.514481
0.513658
0.512837
0.512017
0.511199
0.510382
0.509568
0.508754
0.507943
0.507133
0.506325
0.505519
0.504714
0.503912
0.503111
0.502312
0.501515
0.500719
0.499926
0.499135
0.498346
0.497558
0.496773
0.49599
0.495208
0.494429
0.493652
0.492877
0.492104
0.491333
0.490565
0.489798
0.489034
0.488272
0.487512
0.486754
0.485998
0.485245
0.484494
0.483745
0.482998
0.482254
0.481512
0.480772
0.480034
0.479299
0.478565
0.477835
0.477106
0.476379
0.475655
0.474934
0.474214
0.473497
0.472781
0.472069
0.471358
0.47065
0.469943
0.469239
0.468538
0.467838
0.467141
0.466446
0.465752
0.465062
0.464373
0.463686
0.463001
0.462319
0.461638
0.46096
0.460283
0.459609
0.458936
0.458266
0.457597
0.45693
0.456265
0.455602
0.454941
0.454281
0.453623
0.452967
0.452312
0.451659
0.451008
0.450358
0.44971
0.449062
0.448417
0.447772
0.447129
0.446487
0.445846
0.445206
0.444567
0.443929
0.443292
0.442655
0.442019
0.441383
0.440747
0.440112
0.439477
0.438842
0.438206
0.43757
0.436934
0.436297
0.435659
0.43502
0.434379
0.433737
0.433093
0.432448
0.4318
0.431149
0.430495
0.429839
0.429179
0.428515
0.427847
0.427175
0.426498
0.425816
0.425128
0.424434
0.423735
0.423028
0.422314
0.421593
0.420864
0.420127
0.419381
0.418625
0.41786
0.417086
0.4163
0.415504
0.414697
0.413877
0.413046
0.412203
0.411347
0.410478
0.409595
0.408699
0.407789
0.406865
0.405926
0.404973
0.404006
0.403024
0.402026
0.401015
0.399988
0.398946
0.39789
0.39682
0.395735
0.394636
0.393523
0.392397
0.391258
0.390107
0.388943
0.387769
0.386583
0.385388
0.384183
0.38297
0.38175
0.380523
0.37929
0.378053
0.376813
0.375571
0.374328
0.373086
0.371846
0.37061
0.369379
0.368154
0.366937
0.365731
0.364536
0.363354
0.362187
0.361037
0.359905
0.358794
0.357705
0.356639
0.355598
0.354585
0.353599
0.352644
0.351719
0.350827
0.349968
0.349143
0.348353
0.347599
0.34688
0.346198
0.345551
0.34494
0.344364
0.343823
0.343315
0.342839
0.342393
0.341977
0.341588
0.341223
0.340882
0.34056
0.340256
0.339967
0.33969
0.339422
0.33916
0.338902
0.338643
0.338382
0.338116
0.337841
0.337555
0.337255
0.33694
0.336606
0.336252
0.335876
0.335475
0.33505
0.334597
0.334116
0.333606
0.333067
0.332497
0.331897
0.331265
0.330603
0.32991
0.329186
0.328432
0.327649
0.326837
0.325996
0.325129
0.324234
0.323315
0.322372
0.321405
0.320417
0.319408
0.31838
0.317334
0.316272
0.315195
0.314104
0.313001
0.311888
0.310765
0.309634
0.308496
0.307354
0.306208
0.30506
0.303911
0.302762
0.301616
0.300472
0.299333
0.2982
0.297075
0.295957
0.294849
0.293752
0.292666
0.291594
0.290535
0.289492
0.288465
0.287455
0.286463
0.28549
0.284536
0.283604
0.282692
0.281803
0.280936
0.280093
0.279273
0.278478
0.277707
0.276961
0.276241
0.275545
0.274876
0.274232
0.273613
0.27302
0.272452
0.27191
0.271392
0.270899
0.270433
0.270006
0.26967
0.379451
0.386516
0.395429
0.40597
0.417677
0.429999
0.442371
0.454333
0.465583
0.475952
0.485361
0.493804
0.501316
0.50796
0.513812
0.518947
0.523442
0.527367
0.530789
0.533765
0.536346
0.53858
0.540506
0.542159
0.543571
0.544768
0.545774
0.54661
0.547294
0.547842
0.548268
0.548585
0.548803
0.548932
0.54898
0.548956
0.548867
0.548717
0.548513
0.54826
0.547962
0.547623
0.547246
0.546835
0.546392
0.545921
0.545423
0.544901
0.544357
0.543792
0.543208
0.542607
0.54199
0.541358
0.540713
0.540055
0.539385
0.538705
0.538015
0.537316
0.536609
0.535894
0.535172
0.534443
0.533709
0.532968
0.532223
0.531473
0.530719
0.529961
0.5292
0.528435
0.527667
0.526897
0.526124
0.525349
0.524572
0.523793
0.523013
0.522231
0.521448
0.520664
0.51988
0.519094
0.518308
0.517522
0.516735
0.515948
0.515161
0.514374
0.513587
0.5128
0.512014
0.511228
0.510442
0.509657
0.508873
0.508089
0.507306
0.506524
0.505743
0.504962
0.504183
0.503404
0.502627
0.501851
0.501076
0.500303
0.49953
0.498759
0.49799
0.497221
0.496455
0.495689
0.494926
0.494163
0.493403
0.492644
0.491887
0.491131
0.490377
0.489625
0.488875
0.488126
0.48738
0.486635
0.485892
0.485151
0.484412
0.483675
0.482939
0.482206
0.481475
0.480745
0.480018
0.479292
0.478569
0.477848
0.477128
0.476411
0.475696
0.474983
0.474271
0.473562
0.472855
0.47215
0.471447
0.470747
0.470048
0.469351
0.468656
0.467963
0.467273
0.466584
0.465897
0.465212
0.46453
0.463849
0.46317
0.462493
0.461818
0.461145
0.460474
0.459804
0.459137
0.458471
0.457807
0.457144
0.456484
0.455825
0.455168
0.454512
0.453858
0.453206
0.452555
0.451905
0.451257
0.450611
0.449965
0.449321
0.448678
0.448037
0.447396
0.446756
0.446118
0.44548
0.444843
0.444206
0.44357
0.442935
0.4423
0.441666
0.441031
0.440396
0.439762
0.439127
0.438491
0.437855
0.437218
0.43658
0.435941
0.435301
0.434659
0.434015
0.433369
0.43272
0.432069
0.431415
0.430758
0.430097
0.429433
0.428764
0.428091
0.427413
0.426729
0.42604
0.425345
0.424644
0.423936
0.42322
0.422497
0.421766
0.421026
0.420278
0.41952
0.418753
0.417975
0.417186
0.416387
0.415576
0.414753
0.413919
0.413071
0.412211
0.411337
0.41045
0.409548
0.408633
0.407703
0.406758
0.405799
0.404825
0.403835
0.40283
0.40181
0.400775
0.399724
0.398658
0.397577
0.396482
0.395371
0.394246
0.393107
0.391955
0.390789
0.38961
0.388419
0.387216
0.386002
0.384779
0.383545
0.382303
0.381054
0.379798
0.378536
0.37727
0.376
0.374728
0.373456
0.372184
0.370914
0.369648
0.368386
0.367132
0.365885
0.364649
0.363424
0.362212
0.361015
0.359835
0.358674
0.357533
0.356414
0.355318
0.354248
0.353204
0.352189
0.351204
0.35025
0.349327
0.348438
0.347584
0.346763
0.345978
0.345229
0.344516
0.343838
0.343195
0.342587
0.342013
0.341472
0.340963
0.340484
0.340033
0.339609
0.339209
0.338831
0.338473
0.338133
0.337806
0.337491
0.337185
0.336885
0.336588
0.336292
0.335992
0.335687
0.335374
0.335051
0.334714
0.334362
0.333992
0.333603
0.333192
0.332758
0.332301
0.331817
0.331307
0.33077
0.330204
0.32961
0.328987
0.328335
0.327654
0.326944
0.326205
0.325439
0.324645
0.323824
0.322978
0.322106
0.32121
0.320291
0.31935
0.318389
0.317408
0.316408
0.315392
0.31436
0.313313
0.312254
0.311183
0.310101
0.309011
0.307914
0.30681
0.305702
0.30459
0.303477
0.302363
0.30125
0.300138
0.299031
0.297928
0.29683
0.29574
0.294659
0.293586
0.292525
0.291475
0.290438
0.289415
0.288407
0.287415
0.28644
0.285483
0.284544
0.283624
0.282725
0.281847
0.28099
0.280156
0.279344
0.278555
0.27779
0.277049
0.276332
0.27564
0.274972
0.274329
0.273711
0.273118
0.272549
0.272005
0.271485
0.270989
0.270517
0.270071
0.269662
0.269339
0.377291
0.380856
0.385399
0.391002
0.397646
0.405206
0.413456
0.422126
0.430961
0.43974
0.448288
0.456476
0.464216
0.471459
0.478181
0.48438
0.490067
0.495263
0.499995
0.504292
0.508185
0.511705
0.514883
0.517744
0.520318
0.522627
0.524694
0.526541
0.528186
0.529647
0.530939
0.532076
0.533072
0.533939
0.534686
0.535324
0.535861
0.536306
0.536666
0.536948
0.537157
0.537299
0.53738
0.537403
0.537374
0.537295
0.537171
0.537004
0.536799
0.536557
0.536281
0.535973
0.535636
0.535272
0.534882
0.534468
0.534032
0.533575
0.533099
0.532605
0.532093
0.531566
0.531024
0.530468
0.529899
0.529318
0.528725
0.528122
0.527509
0.526887
0.526255
0.525616
0.524969
0.524314
0.523653
0.522986
0.522313
0.521634
0.52095
0.520261
0.519568
0.518871
0.51817
0.517465
0.516757
0.516046
0.515332
0.514615
0.513896
0.513175
0.512451
0.511726
0.510999
0.510271
0.509541
0.50881
0.508078
0.507344
0.50661
0.505876
0.50514
0.504404
0.503668
0.502932
0.502195
0.501459
0.500722
0.499985
0.499249
0.498513
0.497777
0.497042
0.496307
0.495573
0.494839
0.494106
0.493374
0.492643
0.491912
0.491183
0.490454
0.489727
0.489
0.488275
0.487551
0.486828
0.486107
0.485387
0.484668
0.48395
0.483234
0.482519
0.481806
0.481094
0.480384
0.479675
0.478968
0.478263
0.477559
0.476857
0.476156
0.475457
0.47476
0.474064
0.473371
0.472678
0.471988
0.471299
0.470612
0.469927
0.469244
0.468562
0.467882
0.467204
0.466527
0.465852
0.465179
0.464508
0.463838
0.46317
0.462504
0.461839
0.461176
0.460515
0.459855
0.459197
0.458541
0.457886
0.457233
0.456581
0.45593
0.455281
0.454634
0.453988
0.453343
0.452699
0.452057
0.451416
0.450776
0.450138
0.4495
0.448864
0.448228
0.447593
0.446959
0.446326
0.445693
0.445061
0.44443
0.443799
0.443168
0.442537
0.441906
0.441275
0.440644
0.440012
0.43938
0.438747
0.438113
0.437479
0.436842
0.436205
0.435565
0.434924
0.43428
0.433634
0.432985
0.432334
0.431678
0.43102
0.430357
0.42969
0.429018
0.428342
0.42766
0.426972
0.426278
0.425578
0.424871
0.424156
0.423434
0.422703
0.421964
0.421216
0.420458
0.419691
0.418913
0.418124
0.417325
0.416513
0.41569
0.414854
0.414005
0.413143
0.412268
0.411378
0.410475
0.409557
0.408624
0.407676
0.406713
0.405735
0.404741
0.403731
0.402706
0.401665
0.400608
0.399535
0.398446
0.397342
0.396223
0.395088
0.393938
0.392774
0.391596
0.390404
0.389198
0.38798
0.38675
0.385509
0.384256
0.382994
0.381723
0.380444
0.379157
0.377865
0.376568
0.375267
0.373963
0.372659
0.371354
0.370051
0.368751
0.367456
0.366167
0.364886
0.363614
0.362354
0.361107
0.359874
0.358657
0.357459
0.356281
0.355124
0.35399
0.352882
0.3518
0.350745
0.349721
0.348726
0.347764
0.346835
0.345939
0.345077
0.344251
0.34346
0.342704
0.341984
0.341298
0.340647
0.34003
0.339445
0.338892
0.338369
0.337874
0.337405
0.336961
0.336539
0.336137
0.335752
0.335381
0.335023
0.334673
0.33433
0.33399
0.333652
0.333311
0.332966
0.332613
0.332251
0.331876
0.331488
0.331083
0.33066
0.330217
0.329753
0.329267
0.328756
0.328221
0.32766
0.327073
0.326459
0.325819
0.325152
0.324458
0.323737
0.32299
0.322217
0.32142
0.320597
0.319751
0.318883
0.317992
0.317081
0.31615
0.3152
0.314233
0.31325
0.312252
0.31124
0.310216
0.309181
0.308136
0.307083
0.306023
0.304958
0.303888
0.302815
0.301741
0.300666
0.299592
0.29852
0.297452
0.296389
0.295331
0.294281
0.293239
0.292207
0.291185
0.290174
0.289177
0.288193
0.287223
0.28627
0.285333
0.284413
0.283511
0.282629
0.281766
0.280923
0.280102
0.279302
0.278524
0.277768
0.277036
0.276327
0.275641
0.274979
0.27434
0.273726
0.273135
0.272569
0.272026
0.271506
0.27101
0.270537
0.270086
0.269661
0.26927
0.268961
0.37629
0.378227
0.380645
0.383627
0.387247
0.391534
0.396462
0.401949
0.407887
0.414153
0.420621
0.427171
0.433701
0.440124
0.44637
0.452388
0.458142
0.463607
0.468771
0.473628
0.478179
0.48243
0.48639
0.490069
0.493481
0.496639
0.499557
0.502248
0.504727
0.507006
0.509098
0.511015
0.512768
0.514369
0.515826
0.517151
0.51835
0.519434
0.520409
0.521282
0.522061
0.522751
0.523358
0.523887
0.524344
0.524732
0.525057
0.525322
0.525531
0.525688
0.525795
0.525855
0.525873
0.525849
0.525786
0.525688
0.525555
0.52539
0.525195
0.524971
0.52472
0.524444
0.524144
0.523822
0.523478
0.523114
0.522731
0.52233
0.521911
0.521477
0.521028
0.520564
0.520086
0.519596
0.519093
0.518579
0.518054
0.517519
0.516974
0.51642
0.515857
0.515285
0.514706
0.514119
0.513526
0.512926
0.512319
0.511707
0.511088
0.510465
0.509837
0.509204
0.508566
0.507925
0.507279
0.50663
0.505977
0.505321
0.504662
0.504001
0.503336
0.502669
0.502
0.501329
0.500655
0.49998
0.499303
0.498625
0.497945
0.497264
0.496582
0.495899
0.495215
0.49453
0.493845
0.493159
0.492472
0.491786
0.491099
0.490411
0.489724
0.489037
0.488349
0.487662
0.486975
0.486289
0.485603
0.484917
0.484232
0.483547
0.482863
0.482179
0.481497
0.480815
0.480133
0.479453
0.478774
0.478095
0.477418
0.476741
0.476066
0.475391
0.474718
0.474046
0.473375
0.472705
0.472037
0.471369
0.470703
0.470039
0.469375
0.468713
0.468052
0.467392
0.466734
0.466077
0.465422
0.464767
0.464114
0.463463
0.462813
0.462164
0.461516
0.46087
0.460225
0.459581
0.458939
0.458297
0.457658
0.457019
0.456381
0.455745
0.45511
0.454476
0.453843
0.453211
0.45258
0.45195
0.451322
0.450694
0.450066
0.44944
0.448815
0.44819
0.447565
0.446941
0.446318
0.445695
0.445072
0.44445
0.443827
0.443205
0.442582
0.441959
0.441336
0.440712
0.440087
0.439462
0.438835
0.438207
0.437578
0.436947
0.436314
0.435679
0.435042
0.434402
0.433759
0.433113
0.432464
0.431811
0.431154
0.430492
0.429826
0.429154
0.428477
0.427795
0.427106
0.42641
0.425708
0.424998
0.42428
0.423553
0.422819
0.422074
0.421321
0.420557
0.419783
0.418998
0.418201
0.417393
0.416572
0.415739
0.414893
0.414034
0.413161
0.412273
0.411371
0.410455
0.409523
0.408576
0.407614
0.406635
0.405641
0.40463
0.403604
0.402561
0.401501
0.400425
0.399333
0.398225
0.3971
0.39596
0.394803
0.393632
0.392445
0.391243
0.390027
0.388797
0.387554
0.386298
0.38503
0.383751
0.382461
0.381162
0.379854
0.378538
0.377215
0.375887
0.374555
0.373219
0.371882
0.370544
0.369207
0.367872
0.366542
0.365216
0.363898
0.362589
0.361291
0.360004
0.358732
0.357475
0.356236
0.355015
0.353816
0.35264
0.351488
0.350361
0.349262
0.348192
0.347152
0.346143
0.345167
0.344223
0.343314
0.342439
0.3416
0.340795
0.340026
0.339291
0.33859
0.337924
0.337289
0.336687
0.336114
0.33557
0.335052
0.33456
0.334089
0.333639
0.333207
0.33279
0.332385
0.331991
0.331603
0.33122
0.330839
0.330457
0.330072
0.329681
0.329282
0.328872
0.328449
0.328012
0.327558
0.327086
0.326595
0.326083
0.325549
0.324993
0.324413
0.323809
0.323181
0.322528
0.321851
0.321149
0.320422
0.319672
0.318898
0.318102
0.317283
0.316443
0.315582
0.314702
0.313803
0.312887
0.311954
0.311006
0.310044
0.309069
0.308082
0.307086
0.30608
0.305066
0.304045
0.30302
0.301991
0.300958
0.299925
0.298891
0.297859
0.296829
0.295802
0.294781
0.293765
0.292756
0.291756
0.290765
0.289784
0.288815
0.287858
0.286915
0.285986
0.285072
0.284175
0.283294
0.282431
0.281587
0.280762
0.279956
0.279171
0.278407
0.277664
0.276942
0.276243
0.275567
0.274912
0.274281
0.273673
0.273087
0.272524
0.271985
0.271468
0.270973
0.270501
0.27005
0.269622
0.269217
0.268845
0.26855
0.375763
0.376876
0.37823
0.37987
0.381853
0.38423
0.387032
0.390261
0.3939
0.397912
0.402246
0.40684
0.411629
0.416549
0.421536
0.426537
0.431502
0.436389
0.441166
0.445806
0.450288
0.454598
0.458725
0.462664
0.466412
0.469968
0.473334
0.476514
0.479512
0.482334
0.484986
0.487474
0.489805
0.491986
0.494024
0.495925
0.497696
0.499343
0.500873
0.502292
0.503605
0.504818
0.505936
0.506964
0.507907
0.508769
0.509555
0.510269
0.510913
0.511493
0.512011
0.512471
0.512875
0.513227
0.513529
0.513784
0.513994
0.514162
0.514289
0.514378
0.514431
0.514448
0.514433
0.514387
0.514311
0.514207
0.514076
0.51392
0.513739
0.513535
0.513309
0.513061
0.512794
0.512508
0.512204
0.511882
0.511544
0.511191
0.510822
0.510439
0.510042
0.509632
0.50921
0.508777
0.508331
0.507876
0.50741
0.506934
0.506448
0.505954
0.505452
0.504941
0.504423
0.503897
0.503364
0.502825
0.502279
0.501728
0.50117
0.500607
0.500039
0.499466
0.498888
0.498306
0.49772
0.497129
0.496535
0.495937
0.495336
0.494732
0.494125
0.493514
0.492902
0.492286
0.491669
0.491049
0.490427
0.489803
0.489178
0.488551
0.487922
0.487292
0.486661
0.486028
0.485395
0.484761
0.484125
0.48349
0.482853
0.482216
0.481578
0.48094
0.480302
0.479664
0.479025
0.478387
0.477748
0.477109
0.476471
0.475832
0.475194
0.474557
0.473919
0.473282
0.472645
0.472009
0.471374
0.470738
0.470104
0.46947
0.468837
0.468204
0.467572
0.466941
0.466311
0.465681
0.465053
0.464424
0.463797
0.463171
0.462545
0.461921
0.461297
0.460674
0.460052
0.45943
0.45881
0.45819
0.457572
0.456954
0.456337
0.45572
0.455105
0.45449
0.453876
0.453263
0.45265
0.452038
0.451427
0.450816
0.450206
0.449596
0.448987
0.448378
0.447769
0.447161
0.446553
0.445945
0.445337
0.444728
0.44412
0.443511
0.442902
0.442293
0.441683
0.441072
0.44046
0.439847
0.439232
0.438617
0.437999
0.43738
0.436759
0.436135
0.435509
0.43488
0.434248
0.433613
0.432974
0.432331
0.431684
0.431033
0.430376
0.429715
0.429047
0.428374
0.427695
0.427008
0.426315
0.425614
0.424905
0.424188
0.423461
0.422726
0.421981
0.421225
0.420459
0.419682
0.418894
0.418093
0.417281
0.416455
0.415616
0.414764
0.413898
0.413017
0.412122
0.411212
0.410286
0.409345
0.408388
0.407414
0.406425
0.405418
0.404395
0.403356
0.402299
0.401225
0.400135
0.399027
0.397903
0.396761
0.395604
0.394429
0.393239
0.392033
0.390811
0.389575
0.388324
0.387058
0.38578
0.384489
0.383185
0.381871
0.380546
0.379211
0.377868
0.376517
0.375161
0.373798
0.372432
0.371063
0.369693
0.368322
0.366954
0.365588
0.364227
0.362872
0.361525
0.360187
0.358861
0.357548
0.35625
0.354968
0.353705
0.352462
0.35124
0.350042
0.348869
0.347723
0.346605
0.345517
0.344459
0.343433
0.342439
0.34148
0.340554
0.339663
0.338807
0.337986
0.3372
0.336448
0.33573
0.335045
0.334391
0.333768
0.333173
0.332606
0.332064
0.331545
0.331048
0.330568
0.330105
0.329656
0.329218
0.328787
0.328363
0.327942
0.327521
0.327099
0.326672
0.326238
0.325796
0.325342
0.324876
0.324395
0.323899
0.323384
0.322851
0.322298
0.321725
0.32113
0.320514
0.319875
0.319214
0.31853
0.317825
0.317097
0.316347
0.315577
0.314785
0.313974
0.313144
0.312295
0.311429
0.310546
0.309648
0.308736
0.30781
0.306872
0.305924
0.304965
0.303998
0.303024
0.302044
0.301059
0.300071
0.29908
0.298088
0.297096
0.296105
0.295117
0.294133
0.293153
0.29218
0.291213
0.290255
0.289306
0.288367
0.287439
0.286523
0.285621
0.284733
0.283859
0.283001
0.28216
0.281336
0.28053
0.279742
0.278973
0.278225
0.277496
0.276788
0.2761
0.275435
0.27479
0.274167
0.273567
0.272988
0.272431
0.271896
0.271383
0.270891
0.270421
0.269972
0.269544
0.269137
0.268752
0.268399
0.268116
0.375453
0.376106
0.376887
0.377817
0.378926
0.38025
0.38182
0.38366
0.385782
0.38819
0.390876
0.393823
0.397007
0.400396
0.403958
0.407656
0.411454
0.415317
0.419212
0.423111
0.426987
0.430818
0.434583
0.438267
0.441857
0.445342
0.448715
0.451969
0.455101
0.458109
0.460991
0.463747
0.466378
0.468886
0.471273
0.473542
0.475695
0.477735
0.479667
0.481494
0.483219
0.484847
0.486379
0.487822
0.489176
0.490448
0.491639
0.492752
0.493793
0.494762
0.495664
0.496501
0.497275
0.497991
0.49865
0.499254
0.499806
0.500309
0.500764
0.501173
0.501539
0.501863
0.502147
0.502393
0.502602
0.502777
0.502918
0.503026
0.503104
0.503153
0.503174
0.503167
0.503135
0.503078
0.502997
0.502893
0.502768