/*--------------------------------*- C++ -*----------------------------------*\
| =========                 |                                                 |
| \\      /  F ield         | OpenFOAM: The Open Source CFD Toolbox           |
|  \\    /   O peration     | Version:  2506                                  |
|   \\  /    A nd           | Website:  www.openfoam.com                      |
|    \\/     M anipulation  |                                                 |
\*---------------------------------------------------------------------------*/
FoamFile
{
    version     2.0;
    format      ascii;
    arch        "LSB;label=32;scalar=64";
    class       volScalarField;
    location    "300";
    object      nut;
}
// * * * * * * * * * * * * * * * * * * * * * * * * * * * * * * * * * * * * * //

dimensions      [0 2 -1 0 0 0 0];

internalField   nonuniform List<scalar> 
131949
(
0.0659348
0.068194
0.0682838
0.0682256
0.0682933
0.0684257
0.0685767
0.0687311
0.0688822
0.0690262
0.0691616
0.0692885
0.0694072
0.0695184
0.0696227
0.0697208
0.0698131
0.0699003
0.0699828
0.070061
0.0701353
0.0702059
0.0702732
0.0703375
0.0703989
0.0704576
0.070514
0.070568
0.0706199
0.0706699
0.070718
0.0707643
0.070809
0.0708522
0.0708939
0.0709342
0.0709732
0.071011
0.0710477
0.0710832
0.0711177
0.0711512
0.0711838
0.0712154
0.0712462
0.0712761
0.0713053
0.0713337
0.0713614
0.0713884
0.0714147
0.0714404
0.0714655
0.07149
0.0715139
0.0715372
0.0715601
0.0715824
0.0716042
0.0716256
0.0716465
0.071667
0.071687
0.0717066
0.0717258
0.0717447
0.0717631
0.0717812
0.0717989
0.0718163
0.0718333
0.07185
0.0718664
0.0718825
0.0718983
0.0719138
0.0719289
0.0719439
0.0719585
0.0719729
0.071987
0.0720009
0.0720145
0.0720278
0.072041
0.0720539
0.0720666
0.0720791
0.0720913
0.0721034
0.0721152
0.0721268
0.0721383
0.0721496
0.0721606
0.0721715
0.0721823
0.0721928
0.0722032
0.0722134
0.0722235
0.0722334
0.0722432
0.0722528
0.0722623
0.0722717
0.0722809
0.07229
0.072299
0.0723078
0.0723166
0.0723252
0.0723337
0.0723422
0.0723505
0.0723587
0.0723668
0.0723749
0.0723828
0.0723907
0.0723985
0.0724062
0.0724139
0.0724214
0.0724289
0.0724364
0.0724437
0.072451
0.0724583
0.0724654
0.0724726
0.0724796
0.0724867
0.0724936
0.0725005
0.0725074
0.0725142
0.072521
0.0725277
0.0725343
0.072541
0.0725475
0.0725541
0.0725606
0.072567
0.0725734
0.0725797
0.072586
0.0725923
0.0725985
0.0726046
0.0726107
0.0726168
0.0726227
0.0726287
0.0726345
0.0726404
0.0726461
0.0726518
0.0726574
0.072663
0.0726684
0.0726738
0.0726791
0.0726844
0.0726895
0.0726946
0.0726995
0.0727044
0.0727091
0.0727138
0.0727183
0.0727227
0.072727
0.0727311
0.0727351
0.072739
0.0727426
0.0727461
0.0727495
0.0727526
0.0727555
0.0727582
0.0727607
0.0727629
0.0727649
0.0727665
0.0727679
0.0727689
0.0727696
0.0727699
0.0727699
0.0727693
0.0727684
0.0727669
0.0727649
0.0727624
0.0727593
0.0727555
0.072751
0.0727458
0.0727398
0.072733
0.0727252
0.0727166
0.0727069
0.0726961
0.0726841
0.0726709
0.0726565
0.0726406
0.0726233
0.0726044
0.0725839
0.0725617
0.0725377
0.0725117
0.0724838
0.0724537
0.0724214
0.0723869
0.0723499
0.0723104
0.0722683
0.0722234
0.0721758
0.0721252
0.0720717
0.072015
0.0719552
0.071892
0.0718255
0.0717556
0.0716821
0.0716051
0.0715244
0.0714401
0.071352
0.0712601
0.0711645
0.071065
0.0709617
0.0708546
0.0707437
0.070629
0.0705106
0.0703885
0.0702627
0.0701334
0.0700006
0.0698644
0.069725
0.0695824
0.0694369
0.0692885
0.0691374
0.0689838
0.0688279
0.06867
0.0685101
0.0683486
0.0681858
0.0680218
0.0678569
0.0676914
0.0675257
0.06736
0.0671945
0.0670298
0.066866
0.0667035
0.0665426
0.0663838
0.0662272
0.0660734
0.0659225
0.065775
0.0656312
0.0654915
0.065356
0.0652252
0.0650993
0.0649786
0.0648633
0.0647537
0.0646499
0.0645522
0.0644606
0.0643752
0.0642961
0.0642234
0.0641569
0.0640966
0.0640423
0.063994
0.0639513
0.0639141
0.063882
0.0638545
0.0638315
0.0638123
0.0637965
0.0637835
0.063773
0.0637641
0.0637565
0.0637495
0.0637424
0.0637347
0.0637258
0.063715
0.0637018
0.0636858
0.0636662
0.0636427
0.0636148
0.063582
0.0635441
0.0635007
0.0634515
0.0633962
0.0633347
0.0632669
0.0631926
0.0631118
0.0630245
0.0629308
0.0628307
0.0627243
0.0626117
0.0624933
0.0623691
0.0622394
0.0621044
0.0619645
0.0618199
0.061671
0.0615181
0.0613614
0.0612015
0.0610386
0.0608731
0.0607053
0.0605357
0.0603646
0.0601923
0.0600193
0.059846
0.0596726
0.0594996
0.0593274
0.0591562
0.0589865
0.0588187
0.0586529
0.0584898
0.0583294
0.0581723
0.0580188
0.0578691
0.0577236
0.0575827
0.0574466
0.0573157
0.0571902
0.0570706
0.056957
0.0568498
0.0567492
0.0566556
0.0565693
0.0564904
0.0564192
0.056356
0.0563011
0.0562545
0.0562166
0.0561875
0.0561675
0.0561565
0.0561549
0.0561627
0.0561799
0.0562067
0.0562431
0.0562891
0.0563447
0.0564097
0.0564842
0.056568
0.056661
0.0567629
0.0568735
0.0569926
0.0571199
0.057255
0.0573975
0.0575464
0.0576974
0.0578216
0.0637129
0.0662549
0.0678731
0.0686934
0.0691243
0.0693613
0.0694968
0.0695885
0.0696646
0.0697357
0.0698051
0.069874
0.0699423
0.0700098
0.070076
0.0701408
0.0702039
0.0702652
0.0703247
0.0703823
0.070438
0.0704919
0.070544
0.0705945
0.0706432
0.0706904
0.0707361
0.0707804
0.0708233
0.0708648
0.0709051
0.0709441
0.0709821
0.0710189
0.0710546
0.0710894
0.0711232
0.0711561
0.0711881
0.0712192
0.0712496
0.0712791
0.071308
0.0713361
0.0713635
0.0713902
0.0714164
0.0714419
0.0714668
0.0714911
0.0715149
0.0715382
0.0715609
0.0715832
0.071605
0.0716263
0.0716472
0.0716676
0.0716877
0.0717073
0.0717265
0.0717453
0.0717638
0.0717819
0.0717997
0.0718171
0.0718342
0.0718509
0.0718674
0.0718835
0.0718994
0.0719149
0.0719302
0.0719452
0.0719599
0.0719744
0.0719886
0.0720025
0.0720162
0.0720297
0.0720429
0.0720559
0.0720687
0.0720813
0.0720936
0.0721058
0.0721177
0.0721294
0.072141
0.0721523
0.0721635
0.0721745
0.0721853
0.0721959
0.0722064
0.0722167
0.0722268
0.0722368
0.0722466
0.0722563
0.0722658
0.0722752
0.0722845
0.0722936
0.0723026
0.0723115
0.0723203
0.0723289
0.0723374
0.0723459
0.0723542
0.0723624
0.0723705
0.0723785
0.0723864
0.0723943
0.072402
0.0724097
0.0724173
0.0724248
0.0724323
0.0724396
0.0724469
0.0724542
0.0724613
0.0724685
0.0724755
0.0724825
0.0724895
0.0724963
0.0725032
0.07251
0.0725167
0.0725234
0.07253
0.0725366
0.0725432
0.0725497
0.0725561
0.0725626
0.0725689
0.0725753
0.0725816
0.0725878
0.072594
0.0726002
0.0726063
0.0726124
0.0726184
0.0726244
0.0726303
0.0726362
0.0726421
0.0726479
0.0726536
0.0726593
0.0726649
0.0726704
0.0726759
0.0726813
0.0726867
0.072692
0.0726972
0.0727023
0.0727074
0.0727123
0.0727172
0.072722
0.0727266
0.0727312
0.0727357
0.07274
0.0727442
0.0727483
0.0727523
0.0727561
0.0727598
0.0727633
0.0727666
0.0727697
0.0727727
0.0727754
0.0727779
0.0727802
0.0727822
0.0727839
0.0727854
0.0727865
0.0727874
0.0727878
0.0727879
0.0727876
0.0727868
0.0727856
0.0727839
0.0727816
0.0727788
0.0727754
0.0727713
0.0727665
0.072761
0.0727546
0.0727474
0.0727393
0.0727302
0.0727201
0.0727089
0.0726965
0.0726828
0.0726679
0.0726515
0.0726336
0.0726142
0.0725931
0.0725703
0.0725456
0.0725189
0.0724902
0.0724594
0.0724264
0.072391
0.0723532
0.0723128
0.0722698
0.072224
0.0721754
0.0721238
0.0720692
0.0720115
0.0719505
0.0718863
0.0718186
0.0717475
0.0716728
0.0715945
0.0715126
0.0714269
0.0713375
0.0712443
0.0711473
0.0710465
0.0709418
0.0708333
0.070721
0.0706048
0.070485
0.0703614
0.0702342
0.0701035
0.0699692
0.0698317
0.0696908
0.0695468
0.0693999
0.0692501
0.0690977
0.0689428
0.0687857
0.0686265
0.0684654
0.0683028
0.0681388
0.0679737
0.0678078
0.0676413
0.0674746
0.067308
0.0671418
0.0669763
0.0668118
0.0666487
0.0664873
0.066328
0.066171
0.0660168
0.0658657
0.0657181
0.0655742
0.0654344
0.065299
0.0651683
0.0650426
0.0649222
0.0648073
0.0646981
0.0645948
0.0644976
0.0644065
0.0643218
0.0642434
0.0641714
0.0641056
0.064046
0.0639926
0.063945
0.0639031
0.0638666
0.0638352
0.0638085
0.063786
0.0637674
0.0637521
0.0637397
0.0637295
0.063721
0.0637136
0.0637068
0.0636998
0.063692
0.063683
0.0636721
0.0636587
0.0636423
0.0636223
0.0635984
0.0635699
0.0635366
0.0634981
0.063454
0.0634041
0.0633482
0.063286
0.0632175
0.0631425
0.0630611
0.0629732
0.0628789
0.0627783
0.0626714
0.0625585
0.0624396
0.0623152
0.0621853
0.0620503
0.0619104
0.0617659
0.0616172
0.0614646
0.0613084
0.0611489
0.0609867
0.0608219
0.060655
0.0604864
0.0603164
0.0601454
0.0599737
0.0598018
0.0596301
0.0594588
0.0592884
0.0591192
0.0589516
0.0587859
0.0586225
0.0584618
0.058304
0.0581496
0.0579988
0.057852
0.0577095
0.0575717
0.0574389
0.0573113
0.0571893
0.0570732
0.0569633
0.0568598
0.0567632
0.0566735
0.0565912
0.0565164
0.0564494
0.0563904
0.0563398
0.0562976
0.0562641
0.0562394
0.0562238
0.0562173
0.0562202
0.0562324
0.056254
0.0562852
0.0563259
0.0563761
0.0564358
0.0565049
0.0565834
0.0566709
0.0567675
0.0568729
0.0569867
0.0571089
0.0572389
0.0573766
0.0575214
0.0576724
0.057825
0.0579504
0.0627756
0.0647438
0.0664135
0.0676592
0.0685602
0.0691957
0.069629
0.0699223
0.0701247
0.0702689
0.0703757
0.0704586
0.0705263
0.0705843
0.0706357
0.0706828
0.0707268
0.0707686
0.0708087
0.0708474
0.0708849
0.0709215
0.0709571
0.0709918
0.0710257
0.0710589
0.0710913
0.0711231
0.0711541
0.0711844
0.0712141
0.0712432
0.0712716
0.0712995
0.0713267
0.0713534
0.0713795
0.071405
0.0714301
0.0714546
0.0714786
0.0715021
0.0715252
0.0715478
0.07157
0.0715917
0.071613
0.0716338
0.0716543
0.0716744
0.0716941
0.0717134
0.0717324
0.071751
0.0717693
0.0717873
0.0718049
0.0718222
0.0718392
0.0718559
0.0718723
0.0718884
0.0719042
0.0719198
0.0719351
0.0719501
0.0719649
0.0719794
0.0719937
0.0720077
0.0720215
0.0720351
0.0720484
0.0720615
0.0720744
0.0720871
0.0720996
0.0721118
0.0721239
0.0721358
0.0721475
0.072159
0.0721703
0.0721814
0.0721923
0.0722031
0.0722137
0.0722242
0.0722344
0.0722445
0.0722545
0.0722643
0.072274
0.0722835
0.0722928
0.072302
0.0723111
0.0723201
0.0723289
0.0723376
0.0723462
0.0723546
0.072363
0.0723712
0.0723793
0.0723873
0.0723952
0.072403
0.0724107
0.0724183
0.0724259
0.0724333
0.0724407
0.072448
0.0724552
0.0724623
0.0724693
0.0724763
0.0724833
0.0724901
0.0724969
0.0725036
0.0725103
0.072517
0.0725235
0.07253
0.0725365
0.072543
0.0725493
0.0725557
0.072562
0.0725682
0.0725744
0.0725806
0.0725867
0.0725928
0.0725989
0.0726049
0.0726109
0.0726169
0.0726228
0.0726287
0.0726345
0.0726403
0.0726461
0.0726519
0.0726576
0.0726632
0.0726688
0.0726744
0.07268
0.0726855
0.0726909
0.0726963
0.0727017
0.072707
0.0727122
0.0727174
0.0727226
0.0727276
0.0727326
0.0727376
0.0727424
0.0727472
0.0727519
0.0727566
0.0727611
0.0727656
0.0727699
0.0727742
0.0727783
0.0727824
0.0727863
0.0727901
0.0727937
0.0727972
0.0728006
0.0728038
0.0728068
0.0728096
0.0728122
0.0728147
0.0728169
0.0728188
0.0728206
0.072822
0.0728232
0.072824
0.0728245
0.0728247
0.0728244
0.0728238
0.0728227
0.0728212
0.0728191
0.0728165
0.0728133
0.0728095
0.0728051
0.0727999
0.072794
0.0727873
0.0727797
0.0727712
0.0727616
0.0727511
0.0727394
0.0727265
0.0727124
0.0726969
0.0726801
0.0726617
0.0726417
0.07262
0.0725966
0.0725713
0.072544
0.0725147
0.0724832
0.0724494
0.0724133
0.0723747
0.0723336
0.0722898
0.0722432
0.0721937
0.0721413
0.0720858
0.0720271
0.0719652
0.0719
0.0718313
0.0717591
0.0716834
0.0716041
0.071521
0.0714342
0.0713437
0.0712493
0.0711511
0.071049
0.070943
0.0708332
0.0707196
0.0706022
0.0704809
0.070356
0.0702274
0.0700952
0.0699596
0.0698205
0.0696782
0.0695327
0.0693842
0.0692329
0.069079
0.0689225
0.0687637
0.0686029
0.0684402
0.0682759
0.0681102
0.0679434
0.0677758
0.0676076
0.0674392
0.0672708
0.0671028
0.0669355
0.0667693
0.0666044
0.0664412
0.06628
0.0661213
0.0659653
0.0658123
0.0656629
0.0655172
0.0653756
0.0652384
0.0651059
0.0649785
0.0648563
0.0647397
0.0646288
0.0645239
0.0644251
0.0643325
0.0642462
0.0641664
0.0640929
0.0640258
0.063965
0.0639104
0.0638617
0.0638187
0.0637813
0.063749
0.0637215
0.0636984
0.0636793
0.0636635
0.0636507
0.0636403
0.0636317
0.0636242
0.0636174
0.0636106
0.0636032
0.0635946
0.0635841
0.0635713
0.0635556
0.0635364
0.0635133
0.0634859
0.0634537
0.0634163
0.0633734
0.0633249
0.0632703
0.0632096
0.0631426
0.0630693
0.0629896
0.0629034
0.062811
0.0627122
0.0626073
0.0624964
0.0623797
0.0622574
0.0621297
0.061997
0.0618594
0.0617173
0.0615711
0.061421
0.0612674
0.0611107
0.0609511
0.0607892
0.0606251
0.0604594
0.0602924
0.0601244
0.0599559
0.0597872
0.0596187
0.0594507
0.0592836
0.0591179
0.0589538
0.0587916
0.0586319
0.0584748
0.0583208
0.0581702
0.0580233
0.0578805
0.057742
0.0576083
0.0574796
0.0573562
0.0572384
0.0571266
0.057021
0.0569219
0.0568296
0.0567443
0.0566664
0.0565961
0.0565336
0.0564791
0.0564329
0.0563952
0.0563661
0.0563459
0.0563346
0.0563324
0.0563394
0.0563558
0.0563815
0.0564165
0.056461
0.0565149
0.0565781
0.0566505
0.056732
0.0568225
0.0569217
0.0570295
0.0571455
0.0572696
0.0574013
0.0575403
0.0576862
0.0578379
0.0579909
0.0581161
0.0620602
0.063308
0.0646078
0.0658341
0.0669191
0.0678339
0.0685739
0.0691565
0.0696095
0.0699602
0.0702319
0.0704437
0.0706105
0.0707437
0.0708516
0.0709406
0.0710153
0.0710791
0.0711346
0.0711835
0.0712274
0.0712672
0.0713038
0.0713378
0.0713696
0.0713996
0.0714281
0.0714553
0.0714814
0.0715066
0.0715309
0.0715544
0.0715772
0.0715995
0.0716211
0.0716422
0.0716628
0.071683
0.0717027
0.071722
0.0717409
0.0717595
0.0717777
0.0717956
0.0718131
0.0718303
0.0718472
0.0718638
0.0718802
0.0718962
0.071912
0.0719275
0.0719428
0.0719578
0.0719726
0.0719871
0.0720014
0.0720155
0.0720293
0.072043
0.0720564
0.0720696
0.0720826
0.0720954
0.072108
0.0721204
0.0721327
0.0721447
0.0721566
0.0721682
0.0721797
0.072191
0.0722022
0.0722132
0.072224
0.0722346
0.0722451
0.0722555
0.0722656
0.0722757
0.0722855
0.0722953
0.0723048
0.0723143
0.0723236
0.0723327
0.0723417
0.0723506
0.0723594
0.072368
0.0723765
0.0723849
0.0723931
0.0724013
0.0724093
0.0724172
0.072425
0.0724327
0.0724403
0.0724478
0.0724551
0.0724624
0.0724696
0.0724767
0.0724837
0.0724907
0.0724975
0.0725043
0.0725109
0.0725176
0.0725241
0.0725306
0.072537
0.0725433
0.0725496
0.0725558
0.072562
0.0725681
0.0725742
0.0725802
0.0725861
0.0725921
0.0725979
0.0726038
0.0726096
0.0726153
0.072621
0.0726267
0.0726324
0.072638
0.0726436
0.0726492
0.0726547
0.0726602
0.0726657
0.0726711
0.0726765
0.0726819
0.0726873
0.0726926
0.072698
0.0727032
0.0727085
0.0727137
0.0727189
0.0727241
0.0727293
0.0727344
0.0727395
0.0727445
0.0727496
0.0727545
0.0727595
0.0727644
0.0727692
0.0727741
0.0727788
0.0727835
0.0727882
0.0727928
0.0727974
0.0728019
0.0728063
0.0728106
0.0728149
0.0728191
0.0728232
0.0728272
0.0728312
0.072835
0.0728388
0.0728424
0.0728459
0.0728493
0.0728525
0.0728556
0.0728586
0.0728614
0.072864
0.0728665
0.0728687
0.0728708
0.0728726
0.0728742
0.0728756
0.0728766
0.0728774
0.0728779
0.072878
0.0728778
0.0728772
0.0728761
0.0728747
0.0728728
0.0728703
0.0728673
0.0728638
0.0728596
0.0728548
0.0728492
0.0728429
0.0728357
0.0728277
0.0728188
0.0728088
0.0727978
0.0727857
0.0727724
0.0727578
0.0727418
0.0727245
0.0727056
0.0726851
0.0726629
0.0726389
0.0726131
0.0725853
0.0725554
0.0725233
0.0724889
0.0724522
0.072413
0.0723712
0.0723268
0.0722795
0.0722293
0.0721762
0.07212
0.0720606
0.0719979
0.0719318
0.0718624
0.0717894
0.0717128
0.0716325
0.0715486
0.0714609
0.0713694
0.071274
0.0711748
0.0710716
0.0709646
0.0708537
0.070739
0.0706203
0.0704979
0.0703717
0.0702418
0.0701083
0.0699713
0.0698308
0.069687
0.06954
0.0693899
0.069237
0.0690813
0.0689231
0.0687625
0.0685998
0.0684351
0.0682688
0.068101
0.067932
0.0677622
0.0675917
0.0674209
0.06725
0.0670795
0.0669096
0.0667406
0.0665729
0.0664068
0.0662427
0.0660809
0.0659218
0.0657657
0.0656129
0.0654639
0.0653189
0.0651783
0.0650424
0.0649114
0.0647857
0.0646656
0.0645511
0.0644426
0.0643403
0.0642442
0.0641545
0.0640712
0.0639944
0.0639241
0.0638601
0.0638025
0.0637509
0.0637053
0.0636653
0.0636307
0.0636011
0.0635761
0.0635553
0.0635381
0.0635242
0.0635129
0.0635036
0.0634959
0.0634891
0.0634825
0.0634756
0.0634678
0.0634584
0.063447
0.0634329
0.0634156
0.0633947
0.0633696
0.06334
0.0633054
0.0632655
0.0632201
0.0631689
0.0631117
0.0630484
0.0629788
0.062903
0.0628208
0.0627324
0.0626378
0.0625372
0.0624306
0.0623182
0.0622003
0.0620771
0.0619489
0.0618158
0.0616783
0.0615367
0.0613912
0.0612422
0.0610901
0.0609352
0.0607779
0.0606185
0.0604575
0.0602951
0.0601319
0.059968
0.0598041
0.0596403
0.059477
0.0593147
0.0591537
0.0589944
0.058837
0.0586821
0.0585298
0.0583806
0.0582348
0.0580928
0.0579548
0.0578211
0.0576922
0.0575684
0.0574498
0.0573369
0.0572299
0.0571291
0.0570349
0.0569473
0.0568669
0.0567937
0.0567281
0.0566702
0.0566203
0.0565787
0.0565454
0.0565206
0.0565046
0.0564975
0.0564993
0.0565103
0.0565303
0.0565596
0.056598
0.0566457
0.0567025
0.0567684
0.0568434
0.0569271
0.0570196
0.0571205
0.0572297
0.0573469
0.0574717
0.0576039
0.0577431
0.0578888
0.0580399
0.058192
0.058316
0.0616763
0.0623976
0.0632484
0.0641754
0.065119
0.066028
0.066864
0.0676059
0.0682481
0.068795
0.0692554
0.0696405
0.0699618
0.0702299
0.0704541
0.0706424
0.0708013
0.0709363
0.0710518
0.0711513
0.0712378
0.0713134
0.07138
0.0714392
0.0714922
0.07154
0.0715833
0.0716229
0.0716593
0.0716929
0.0717242
0.0717534
0.0717808
0.0718066
0.0718311
0.0718543
0.0718764
0.0718976
0.0719178
0.0719373
0.0719561
0.0719742
0.0719917
0.0720087
0.0720251
0.0720411
0.0720567
0.0720718
0.0720866
0.072101
0.0721151
0.0721289
0.0721423
0.0721555
0.0721685
0.0721811
0.0721935
0.0722057
0.0722177
0.0722294
0.072241
0.0722523
0.0722634
0.0722744
0.0722851
0.0722957
0.0723061
0.0723164
0.0723264
0.0723364
0.0723461
0.0723557
0.0723652
0.0723745
0.0723836
0.0723927
0.0724015
0.0724103
0.0724189
0.0724274
0.0724357
0.0724439
0.072452
0.07246
0.0724679
0.0724756
0.0724832
0.0724907
0.0724981
0.0725054
0.0725126
0.0725197
0.0725267
0.0725335
0.0725403
0.072547
0.0725536
0.0725601
0.0725665
0.0725728
0.0725791
0.0725852
0.0725913
0.0725973
0.0726033
0.0726092
0.072615
0.0726207
0.0726264
0.072632
0.0726375
0.072643
0.0726485
0.0726539
0.0726592
0.0726646
0.0726698
0.072675
0.0726802
0.0726854
0.0726905
0.0726956
0.0727006
0.0727057
0.0727106
0.0727156
0.0727206
0.0727255
0.0727304
0.0727352
0.0727401
0.0727449
0.0727497
0.0727545
0.0727593
0.072764
0.0727688
0.0727735
0.0727782
0.0727829
0.0727876
0.0727922
0.0727968
0.0728015
0.0728061
0.0728106
0.0728152
0.0728197
0.0728242
0.0728287
0.0728332
0.0728376
0.072842
0.0728463
0.0728506
0.0728549
0.0728592
0.0728634
0.0728675
0.0728716
0.0728757
0.0728797
0.0728836
0.0728875
0.0728913
0.072895
0.0728986
0.0729022
0.0729057
0.0729091
0.0729123
0.0729155
0.0729186
0.0729215
0.0729244
0.072927
0.0729296
0.072932
0.0729342
0.0729362
0.072938
0.0729397
0.0729411
0.0729423
0.0729432
0.0729439
0.0729443
0.0729444
0.0729441
0.0729435
0.0729425
0.0729411
0.0729392
0.0729369
0.0729341
0.0729307
0.0729267
0.0729222
0.0729169
0.072911
0.0729043
0.0728967
0.0728883
0.072879
0.0728686
0.0728572
0.0728447
0.072831
0.072816
0.0727996
0.0727818
0.0727625
0.0727416
0.072719
0.0726946
0.0726683
0.07264
0.0726097
0.0725771
0.0725423
0.0725052
0.0724655
0.0724232
0.0723783
0.0723305
0.0722798
0.0722262
0.0721694
0.0721095
0.0720463
0.0719797
0.0719096
0.071836
0.0717589
0.071678
0.0715934
0.071505
0.0714128
0.0713167
0.0712167
0.0711128
0.071005
0.0708933
0.0707776
0.070658
0.0705346
0.0704074
0.0702764
0.0701417
0.0700035
0.0698617
0.0697165
0.0695681
0.0694165
0.069262
0.0691046
0.0689446
0.0687821
0.0686174
0.0684506
0.068282
0.0681119
0.0679405
0.067768
0.0675948
0.0674211
0.0672473
0.0670736
0.0669004
0.066728
0.0665567
0.0663869
0.0662189
0.0660531
0.0658899
0.0657295
0.0655723
0.0654188
0.0652691
0.0651237
0.0649829
0.064847
0.0647162
0.0645909
0.0644713
0.0643576
0.06425
0.0641487
0.0640539
0.0639655
0.0638837
0.0638084
0.0637397
0.0636774
0.0636214
0.0635716
0.0635276
0.0634894
0.0634564
0.0634283
0.0634048
0.0633854
0.0633695
0.0633567
0.0633463
0.063338
0.0633309
0.0633246
0.0633184
0.0633117
0.0633039
0.0632944
0.0632827
0.0632683
0.0632505
0.063229
0.0632033
0.0631729
0.0631376
0.063097
0.0630508
0.0629989
0.0629411
0.0628772
0.0628072
0.0627311
0.0626488
0.0625604
0.062466
0.0623658
0.0622598
0.0621484
0.0620316
0.0619098
0.0617833
0.0616522
0.061517
0.061378
0.0612354
0.0610896
0.0609411
0.0607901
0.060637
0.0604822
0.060326
0.0601689
0.0600111
0.0598532
0.0596954
0.0595381
0.0593817
0.0592266
0.0590731
0.0589216
0.0587724
0.0586258
0.0584823
0.0583421
0.0582057
0.0580732
0.0579451
0.0578217
0.0577032
0.05759
0.0574824
0.0573807
0.0572851
0.057196
0.0571135
0.057038
0.0569698
0.0569089
0.0568557
0.0568104
0.0567732
0.0567442
0.0567237
0.0567117
0.0567084
0.0567139
0.0567283
0.0567516
0.0567839
0.0568251
0.0568753
0.0569344
0.0570023
0.0570789
0.057164
0.0572576
0.0573592
0.0574688
0.057586
0.0577106
0.0578421
0.0579803
0.0581246
0.058274
0.058424
0.0585458
0.0614873
0.0618997
0.0624111
0.0630134
0.063687
0.0644046
0.0651349
0.0658497
0.0665278
0.0671557
0.0677264
0.0682377
0.0686912
0.0690906
0.0694409
0.0697473
0.0700152
0.0702494
0.0704545
0.0706346
0.070793
0.0709329
0.0710569
0.0711671
0.0712655
0.0713536
0.0714329
0.0715045
0.0715695
0.0716286
0.0716826
0.0717321
0.0717776
0.0718197
0.0718587
0.0718949
0.0719287
0.0719603
0.0719899
0.0720178
0.0720441
0.0720689
0.0720924
0.0721148
0.0721361
0.0721564
0.0721757
0.0721943
0.0722121
0.0722292
0.0722457
0.0722615
0.0722768
0.0722916
0.0723059
0.0723197
0.0723331
0.0723462
0.0723588
0.0723711
0.0723831
0.0723947
0.0724061
0.0724171
0.0724279
0.0724385
0.0724488
0.0724588
0.0724687
0.0724783
0.0724877
0.0724969
0.0725059
0.0725148
0.0725234
0.0725319
0.0725402
0.0725484
0.0725564
0.0725643
0.072572
0.0725795
0.072587
0.0725942
0.0726014
0.0726084
0.0726153
0.0726221
0.0726288
0.0726354
0.0726418
0.0726481
0.0726544
0.0726605
0.0726665
0.0726724
0.0726783
0.072684
0.0726897
0.0726953
0.0727008
0.0727062
0.0727115
0.0727168
0.072722
0.0727271
0.0727322
0.0727372
0.0727421
0.072747
0.0727518
0.0727566
0.0727614
0.0727661
0.0727707
0.0727753
0.0727799
0.0727844
0.0727889
0.0727934
0.0727978
0.0728023
0.0728066
0.072811
0.0728153
0.0728197
0.072824
0.0728282
0.0728325
0.0728368
0.072841
0.0728452
0.0728494
0.0728536
0.0728578
0.0728619
0.0728661
0.0728702
0.0728744
0.0728785
0.0728826
0.0728867
0.0728908
0.0728948
0.0728989
0.0729029
0.072907
0.072911
0.0729149
0.0729189
0.0729229
0.0729268
0.0729307
0.0729345
0.0729384
0.0729422
0.0729459
0.0729497
0.0729533
0.072957
0.0729606
0.0729641
0.0729676
0.072971
0.0729744
0.0729777
0.0729809
0.072984
0.0729871
0.07299
0.0729929
0.0729957
0.0729983
0.0730009
0.0730033
0.0730056
0.0730077
0.0730097
0.0730115
0.0730132
0.0730146
0.0730159
0.0730169
0.0730177
0.0730183
0.0730186
0.0730186
0.0730183
0.0730177
0.0730167
0.0730154
0.0730136
0.0730114
0.0730087
0.0730056
0.0730019
0.0729976
0.0729926
0.0729871
0.0729808
0.0729737
0.0729658
0.0729571
0.0729474
0.0729368
0.072925
0.0729122
0.0728981
0.0728828
0.0728661
0.072848
0.0728284
0.0728072
0.0727843
0.0727596
0.072733
0.0727045
0.0726738
0.072641
0.0726059
0.0725685
0.0725285
0.072486
0.0724408
0.0723927
0.0723418
0.0722879
0.0722309
0.0721707
0.0721072
0.0720403
0.07197
0.0718961
0.0718186
0.0717374
0.0716525
0.0715638
0.0714712
0.0713747
0.0712743
0.07117
0.0710617
0.0709494
0.0708331
0.070713
0.0705889
0.0704609
0.0703291
0.0701936
0.0700544
0.0699115
0.0697653
0.0696156
0.0694627
0.0693067
0.0691478
0.0689861
0.0688218
0.0686551
0.0684863
0.0683154
0.0681429
0.0679689
0.0677937
0.0676176
0.0674408
0.0672637
0.0670866
0.0669097
0.0667334
0.066558
0.066384
0.0662115
0.066041
0.0658729
0.0657074
0.065545
0.065386
0.0652307
0.0650795
0.0649327
0.0647907
0.0646537
0.064522
0.0643959
0.0642757
0.0641616
0.0640537
0.0639523
0.0638574
0.0637691
0.0636876
0.0636126
0.0635444
0.0634826
0.0634273
0.0633781
0.0633349
0.0632975
0.0632653
0.0632381
0.0632155
0.063197
0.063182
0.06317
0.0631606
0.0631531
0.0631468
0.0631413
0.0631359
0.06313
0.0631229
0.0631142
0.0631033
0.0630895
0.0630725
0.0630517
0.0630267
0.0629972
0.0629628
0.0629231
0.062878
0.0628272
0.0627706
0.0627081
0.0626396
0.0625651
0.0624847
0.0623983
0.0623062
0.0622084
0.0621051
0.0619965
0.0618829
0.0617644
0.0616415
0.0615143
0.0613833
0.0612486
0.0611107
0.0609699
0.0608266
0.0606811
0.0605338
0.0603851
0.0602353
0.0600848
0.059934
0.0597833
0.059633
0.0594835
0.0593351
0.0591883
0.0590434
0.0589007
0.0587606
0.0586234
0.0584895
0.0583592
0.0582329
0.0581108
0.0579932
0.0578806
0.0577731
0.0576711
0.0575749
0.0574848
0.0574009
0.0573236
0.0572532
0.0571898
0.0571337
0.0570852
0.0570443
0.0570114
0.0569865
0.0569698
0.0569615
0.0569617
0.0569704
0.0569878
0.0570138
0.0570485
0.0570919
0.0571439
0.0572046
0.0572737
0.0573511
0.0574368
0.0575305
0.0576319
0.0577409
0.0578572
0.0579804
0.0581102
0.0582462
0.0583881
0.0585346
0.0586814
0.0588003
0.0613929
0.0616395
0.0619448
0.0623136
0.0627463
0.0632372
0.0637741
0.0643409
0.0649209
0.0654987
0.0660614
0.0665992
0.0671054
0.067576
0.0680095
0.0684058
0.0687662
0.0690927
0.0693878
0.069654
0.0698942
0.0701108
0.0703062
0.0704828
0.0706425
0.0707873
0.0709187
0.0710383
0.0711472
0.0712468
0.0713379
0.0714216
0.0714985
0.0715694
0.0716349
0.0716955
0.0717518
0.0718041
0.0718528
0.0718983
0.0719408
0.0719807
0.0720181
0.0720533
0.0720865
0.0721178
0.0721474
0.0721755
0.0722021
0.0722273
0.0722514
0.0722743
0.0722961
0.072317
0.0723369
0.072356
0.0723744
0.0723919
0.0724088
0.0724251
0.0724407
0.0724558
0.0724703
0.0724843
0.0724979
0.072511
0.0725237
0.0725359
0.0725478
0.0725594
0.0725705
0.0725814
0.0725919
0.0726022
0.0726122
0.0726218
0.0726313
0.0726405
0.0726494
0.0726581
0.0726666
0.0726749
0.072683
0.0726909
0.0726985
0.0727061
0.0727134
0.0727206
0.0727276
0.0727344
0.0727411
0.0727477
0.0727541
0.0727604
0.0727665
0.0727725
0.0727784
0.0727842
0.0727899
0.0727954
0.0728009
0.0728062
0.0728115
0.0728167
0.0728218
0.0728267
0.0728317
0.0728365
0.0728413
0.072846
0.0728506
0.0728552
0.0728597
0.0728641
0.0728686
0.0728729
0.0728772
0.0728815
0.0728857
0.0728899
0.0728941
0.0728982
0.0729023
0.0729063
0.0729103
0.0729144
0.0729183
0.0729223
0.0729262
0.0729302
0.0729341
0.0729379
0.0729418
0.0729457
0.0729495
0.0729533
0.0729572
0.072961
0.0729648
0.0729685
0.0729723
0.0729761
0.0729798
0.0729835
0.0729872
0.072991
0.0729946
0.0729983
0.073002
0.0730056
0.0730092
0.0730128
0.0730164
0.0730199
0.0730234
0.0730269
0.0730303
0.0730337
0.0730371
0.0730404
0.0730437
0.0730469
0.07305
0.0730532
0.0730562
0.0730592
0.0730621
0.0730649
0.0730677
0.0730703
0.0730729
0.0730754
0.0730777
0.07308
0.0730821
0.0730841
0.0730859
0.0730876
0.0730892
0.0730905
0.0730917
0.0730927
0.0730934
0.073094
0.0730943
0.0730943
0.073094
0.0730935
0.0730926
0.0730913
0.0730897
0.0730877
0.0730853
0.0730823
0.0730789
0.0730749
0.0730704
0.0730653
0.0730594
0.0730529
0.0730456
0.0730375
0.0730286
0.0730187
0.0730078
0.0729959
0.0729829
0.0729687
0.0729532
0.0729363
0.0729181
0.0728983
0.0728769
0.0728539
0.0728291
0.0728024
0.0727738
0.0727431
0.0727102
0.072675
0.0726375
0.0725975
0.072555
0.0725098
0.0724617
0.0724108
0.0723569
0.0722999
0.0722398
0.0721763
0.0721095
0.0720392
0.0719654
0.071888
0.0718068
0.071722
0.0716333
0.0715407
0.0714442
0.0713438
0.0712394
0.071131
0.0710186
0.0709022
0.0707818
0.0706574
0.0705291
0.0703969
0.0702609
0.0701211
0.0699776
0.0698306
0.06968
0.0695261
0.069369
0.0692088
0.0690457
0.0688799
0.0687115
0.0685408
0.0683679
0.0681931
0.0680166
0.0678388
0.0676598
0.0674799
0.0672995
0.0671188
0.0669381
0.0667578
0.0665781
0.0663995
0.0662223
0.0660468
0.0658733
0.0657023
0.0655341
0.0653691
0.0652076
0.0650499
0.0648964
0.0647475
0.0646034
0.0644646
0.0643312
0.0642035
0.0640819
0.0639664
0.0638574
0.0637549
0.0636591
0.0635701
0.0634879
0.0634125
0.0633439
0.063282
0.0632265
0.0631775
0.0631345
0.0630974
0.0630657
0.0630391
0.0630171
0.0629993
0.0629852
0.0629743
0.0629659
0.0629596
0.0629546
0.0629504
0.0629464
0.062942
0.0629366
0.0629296
0.0629204
0.0629085
0.0628934
0.0628746
0.0628518
0.0628245
0.0627924
0.0627553
0.0627127
0.0626647
0.062611
0.0625515
0.0624862
0.062415
0.0623381
0.0622554
0.0621671
0.0620734
0.0619743
0.0618702
0.0617612
0.0616477
0.0615299
0.061408
0.0612825
0.0611537
0.0610218
0.0608873
0.0607505
0.0606117
0.0604714
0.0603298
0.0601875
0.0600447
0.0599019
0.0597593
0.0596174
0.0594765
0.0593371
0.0591994
0.0590637
0.0589306
0.0588003
0.0586731
0.0585494
0.0584294
0.0583137
0.0582023
0.0580957
0.0579942
0.0578979
0.0578074
0.0577227
0.0576441
0.057572
0.0575066
0.057448
0.0573965
0.0573524
0.0573158
0.0572868
0.0572657
0.0572526
0.0572476
0.0572508
0.0572622
0.057282
0.0573102
0.0573467
0.0573916
0.0574448
0.0575062
0.0575757
0.0576533
0.0577386
0.0578316
0.0579319
0.0580394
0.0581538
0.0582747
0.0584018
0.0585348
0.0586731
0.0588158
0.0589585
0.0590737
0.0613427
0.0615008
0.0616908
0.0619183
0.0621878
0.0625019
0.0628596
0.0632565
0.0636856
0.0641383
0.0646055
0.065078
0.0655476
0.0660074
0.0664517
0.0668766
0.0672793
0.0676582
0.0680126
0.0683427
0.0686489
0.0689322
0.069194
0.0694355
0.0696581
0.0698632
0.0700523
0.0702267
0.0703875
0.070536
0.0706733
0.0708003
0.0709179
0.071027
0.0711283
0.0712226
0.0713103
0.0713921
0.0714684
0.0715399
0.0716067
0.0716694
0.0717282
0.0717835
0.0718356
0.0718846
0.0719309
0.0719746
0.072016
0.0720552
0.0720923
0.0721275
0.072161
0.0721929
0.0722232
0.0722521
0.0722797
0.072306
0.0723311
0.0723552
0.0723782
0.0724003
0.0724215
0.0724418
0.0724613
0.0724801
0.0724981
0.0725155
0.0725322
0.0725483
0.0725639
0.0725788
0.0725933
0.0726073
0.0726208
0.0726339
0.0726465
0.0726587
0.0726706
0.072682
0.0726932
0.0727039
0.0727144
0.0727245
0.0727344
0.0727439
0.0727532
0.0727622
0.072771
0.0727795
0.0727878
0.0727959
0.0728037
0.0728114
0.0728188
0.0728261
0.0728332
0.0728401
0.0728468
0.0728533
0.0728598
0.072866
0.0728721
0.0728781
0.072884
0.0728897
0.0728953
0.0729008
0.0729062
0.0729115
0.0729167
0.0729217
0.0729268
0.0729317
0.0729365
0.0729413
0.072946
0.0729506
0.0729552
0.0729597
0.0729641
0.0729685
0.0729728
0.0729771
0.0729814
0.0729856
0.0729897
0.0729939
0.072998
0.073002
0.073006
0.07301
0.073014
0.073018
0.0730219
0.0730258
0.0730296
0.0730335
0.0730373
0.0730411
0.0730449
0.0730487