/*--------------------------------*- C++ -*----------------------------------*\
| =========                 |                                                 |
| \\      /  F ield         | OpenFOAM: The Open Source CFD Toolbox           |
|  \\    /   O peration     | Version:  2506                                  |
|   \\  /    A nd           | Website:  www.openfoam.com                      |
|    \\/     M anipulation  |                                                 |
\*---------------------------------------------------------------------------*/
FoamFile
{
    version     2.0;
    format      ascii;
    arch        "LSB;label=32;scalar=64";
    class       volScalarField;
    location    "300";
    object      p;
}
// * * * * * * * * * * * * * * * * * * * * * * * * * * * * * * * * * * * * * //

dimensions      [0 2 -2 0 0 0 0];

internalField   nonuniform List<scalar> 
131949
(
-34.0954
-26.487
-22.8085
-21.4382
-20.2104
-19.0652
-18.1562
-17.4073
-16.7487
-16.1615
-15.6359
-15.1601
-14.7249
-14.3242
-13.9529
-13.6071
-13.2835
-12.9795
-12.6929
-12.4219
-12.1648
-11.9203
-11.6873
-11.4647
-11.2518
-11.0476
-10.8516
-10.6632
-10.4817
-10.3067
-10.1378
-9.97458
-9.81669
-9.66381
-9.51564
-9.37192
-9.2324
-9.09686
-8.96508
-8.83688
-8.71208
-8.59052
-8.47204
-8.3565
-8.24377
-8.13373
-8.02627
-7.92127
-7.81863
-7.71827
-7.62008
-7.524
-7.42993
-7.33781
-7.24756
-7.15912
-7.07243
-6.98743
-6.90405
-6.82225
-6.74198
-6.66319
-6.58583
-6.50985
-6.43522
-6.3619
-6.28985
-6.21903
-6.14941
-6.08095
-6.01363
-5.94741
-5.88226
-5.81816
-5.75507
-5.69298
-5.63186
-5.57168
-5.51242
-5.45406
-5.39658
-5.33996
-5.28418
-5.22921
-5.17505
-5.12167
-5.06906
-5.0172
-4.96607
-4.91566
-4.86595
-4.81693
-4.76859
-4.72092
-4.67389
-4.62749
-4.58172
-4.53657
-4.49201
-4.44805
-4.40466
-4.36185
-4.31959
-4.27788
-4.2367
-4.19606
-4.15594
-4.11633
-4.07722
-4.0386
-4.00048
-3.96283
-3.92565
-3.88893
-3.85267
-3.81686
-3.78149
-3.74655
-3.71204
-3.67795
-3.64428
-3.61102
-3.57816
-3.54569
-3.51362
-3.48193
-3.45063
-3.41969
-3.38913
-3.35893
-3.32909
-3.2996
-3.27047
-3.24167
-3.21322
-3.1851
-3.15732
-3.12986
-3.10272
-3.07589
-3.04939
-3.02319
-2.9973
-2.9717
-2.94641
-2.92141
-2.8967
-2.87227
-2.84813
-2.82427
-2.80068
-2.77737
-2.75432
-2.73154
-2.70902
-2.68676
-2.66475
-2.643
-2.62149
-2.60023
-2.57922
-2.55844
-2.5379
-2.51759
-2.49752
-2.47767
-2.45805
-2.43864
-2.41946
-2.4005
-2.38174
-2.3632
-2.34487
-2.32674
-2.30881
-2.29109
-2.27356
-2.25623
-2.23908
-2.22213
-2.20537
-2.18879
-2.17239
-2.15617
-2.14013
-2.12426
-2.10857
-2.09304
-2.07768
-2.06249
-2.04746
-2.03259
-2.01787
-2.00332
-1.98891
-1.97466
-1.96056
-1.9466
-1.93278
-1.91911
-1.90558
-1.89219
-1.87893
-1.8658
-1.85281
-1.83994
-1.82721
-1.81459
-1.8021
-1.78973
-1.77748
-1.76534
-1.75332
-1.74142
-1.72962
-1.71793
-1.70635
-1.69487
-1.6835
-1.67223
-1.66105
-1.64998
-1.639
-1.62811
-1.61731
-1.60661
-1.59599
-1.58546
-1.57501
-1.56465
-1.55437
-1.54417
-1.53405
-1.524
-1.51403
-1.50413
-1.4943
-1.48455
-1.47486
-1.46524
-1.45568
-1.44619
-1.43676
-1.42739
-1.41808
-1.40882
-1.39962
-1.39048
-1.38139
-1.37234
-1.36335
-1.3544
-1.3455
-1.33664
-1.32782
-1.31904
-1.31029
-1.30158
-1.2929
-1.28424
-1.27562
-1.26702
-1.25843
-1.24987
-1.24132
-1.23278
-1.22425
-1.21572
-1.20719
-1.19866
-1.19013
-1.18158
-1.17301
-1.16442
-1.15581
-1.14716
-1.13848
-1.12976
-1.121
-1.11218
-1.1033
-1.09437
-1.08536
-1.07628
-1.06711
-1.05787
-1.04852
-1.03908
-1.02953
-1.01988
-1.0101
-1.00021
-0.990185
-0.980029
-0.969737
-0.959303
-0.948724
-0.937997
-0.927119
-0.916088
-0.904902
-0.893561
-0.882065
-0.870415
-0.858613
-0.846662
-0.834566
-0.822328
-0.809956
-0.797454
-0.784831
-0.772095
-0.759255
-0.746322
-0.733305
-0.720216
-0.707067
-0.69387
-0.680639
-0.667386
-0.654126
-0.640871
-0.627635
-0.614432
-0.601276
-0.588179
-0.575155
-0.562216
-0.549375
-0.536643
-0.524031
-0.51155
-0.49921
-0.487019
-0.474986
-0.463119
-0.451424
-0.439908
-0.428577
-0.417433
-0.406482
-0.395726
-0.385167
-0.374807
-0.364648
-0.354688
-0.344927
-0.335365
-0.325999
-0.316827
-0.307847
-0.299054
-0.290446
-0.282018
-0.273766
-0.265684
-0.257767
-0.25001
-0.242407
-0.234952
-0.227639
-0.22046
-0.213411
-0.206484
-0.199672
-0.192969
-0.186368
-0.179863
-0.173445
-0.16711
-0.16085
-0.15466
-0.148531
-0.142459
-0.136437
-0.130459
-0.124521
-0.118615
-0.112738
-0.106885
-0.101051
-0.0952312
-0.089423
-0.0836229
-0.0778279
-0.0720362
-0.0662454
-0.0604551
-0.0546641
-0.0488734
-0.0430837
-0.0372987
-0.031523
-0.025764
-0.0200353
-0.0143365
-0.00877096
-0.00298379
0.00117806
0.0126032
-26.5467
-23.9818
-22.0164
-20.8626
-19.8237
-18.8398
-18.0041
-17.2923
-16.6609
-16.0932
-15.5808
-15.1146
-14.6868
-14.2918
-13.925
-13.5828
-13.2622
-12.9606
-12.6761
-12.4067
-12.1511
-11.9079
-11.676
-11.4544
-11.2423
-11.0389
-10.8435
-10.6557
-10.4747
-10.3002
-10.1317
-9.96887
-9.81133
-9.65876
-9.51088
-9.36743
-9.22815
-9.09283
-8.96126
-8.83325
-8.70862
-8.58722
-8.46889
-8.3535
-8.2409
-8.13098
-8.02363
-7.91874
-7.81621
-7.71593
-7.61784
-7.52184
-7.42785
-7.3358
-7.24563
-7.15726
-7.07063
-6.98568
-6.90237
-6.82062
-6.7404
-6.66166
-6.58434
-6.50841
-6.43382
-6.36054
-6.28853
-6.21775
-6.14816
-6.07974
-6.01244
-5.94625
-5.88113
-5.81706
-5.754
-5.69194
-5.63084
-5.57068
-5.51145
-5.45311
-5.39566
-5.33906
-5.28329
-5.22835
-5.1742
-5.12084
-5.06825
-5.0164
-4.96529
-4.91489
-4.8652
-4.8162
-4.76787
-4.72021
-4.67319
-4.62681
-4.58105
-4.53591
-4.49137
-4.44741
-4.40404
-4.36123
-4.31898
-4.27728
-4.23612
-4.19548
-4.15537
-4.11577
-4.07667
-4.03806
-3.99994
-3.9623
-3.92513
-3.88842
-3.85217
-3.81636
-3.781
-3.74607
-3.71157
-3.67749
-3.64382
-3.61056
-3.57771
-3.54525
-3.51319
-3.4815
-3.4502
-3.41928
-3.38872
-3.35852
-3.32869
-3.29921
-3.27008
-3.24129
-3.21284
-3.18473
-3.15694
-3.12949
-3.10235
-3.07554
-3.04903
-3.02284
-2.99695
-2.97136
-2.94607
-2.92108
-2.89637
-2.87195
-2.84781
-2.82395
-2.80037
-2.77706
-2.75402
-2.73124
-2.70872
-2.68646
-2.66446
-2.64271
-2.62121
-2.59995
-2.57894
-2.55817
-2.53763
-2.51733
-2.49725
-2.47741
-2.45779
-2.43839
-2.41921
-2.40025
-2.3815
-2.36296
-2.34463
-2.3265
-2.30858
-2.29086
-2.27333
-2.256
-2.23886
-2.22191
-2.20515
-2.18857
-2.17218
-2.15596
-2.13992
-2.12406
-2.10836
-2.09284
-2.07748
-2.06229
-2.04726
-2.03239
-2.01768
-2.00313
-1.98873
-1.97447
-1.96037
-1.94642
-1.9326
-1.91893
-1.9054
-1.89201
-1.87875
-1.86563
-1.85263
-1.83977
-1.82703
-1.81442
-1.80193
-1.78955
-1.7773
-1.76517
-1.75315
-1.74124
-1.72944
-1.71775
-1.70617
-1.69469
-1.68331
-1.67204
-1.66086
-1.64978
-1.6388
-1.62791
-1.61711
-1.6064
-1.59578
-1.58524
-1.57479
-1.56443
-1.55414
-1.54393
-1.5338
-1.52375
-1.51377
-1.50387
-1.49403
-1.48427
-1.47457
-1.46494
-1.45538
-1.44587
-1.43643
-1.42705
-1.41773
-1.40846
-1.39925
-1.3901
-1.38099
-1.37193
-1.36292
-1.35396
-1.34504
-1.33616
-1.32732
-1.31852
-1.30976
-1.30103
-1.29233
-1.28365
-1.27501
-1.26638
-1.25778
-1.24919
-1.24061
-1.23205
-1.22349
-1.21494
-1.20639
-1.19783
-1.18927
-1.18069
-1.1721
-1.16348
-1.15484
-1.14618
-1.13747
-1.12873
-1.11994
-1.1111
-1.1022
-1.09324
-1.08421
-1.07512
-1.06594
-1.05667
-1.04732
-1.03787
-1.02832
-1.01865
-1.00888
-0.998983
-0.988963
-0.978814
-0.968531
-0.958109
-0.947546
-0.936837
-0.925979
-0.914972
-0.903812
-0.892501
-0.881036
-0.869421
-0.857655
-0.845742
-0.833686
-0.82149
-0.809161
-0.796704
-0.784128
-0.771439
-0.758646
-0.745761
-0.732793
-0.719753
-0.706653
-0.693505
-0.680323
-0.667119
-0.653906
-0.640698
-0.627509
-0.614352
-0.601241
-0.588188
-0.575207
-0.562311
-0.54951
-0.536818
-0.524245
-0.511801
-0.499497
-0.487341
-0.475342
-0.463507
-0.451844
-0.440359
-0.429055
-0.41794
-0.407015
-0.396285
-0.38575
-0.375414
-0.365276
-0.355337
-0.345597
-0.336053
-0.326705
-0.31755
-0.308586
-0.299809
-0.291215
-0.2828
-0.27456
-0.266489
-0.258583
-0.250836
-0.243242
-0.235795
-0.228489
-0.221317
-0.214274
-0.207352
-0.200545
-0.193845
-0.187248
-0.180744
-0.174329
-0.167994
-0.161735
-0.155543
-0.149414
-0.14334
-0.137316
-0.131335
-0.125393
-0.119483
-0.113601
-0.107742
-0.101901
-0.0960739
-0.0902578
-0.0844487
-0.0786443
-0.0728419
-0.06704
-0.0612371
-0.0554329
-0.0496272
-0.0438214
-0.0380176
-0.0322208
-0.0264366
-0.0206767
-0.0149419
-0.00930446
-0.00350102
0.00113061
0.0112139
-23.3365
-22.5358
-21.2974
-20.249
-19.353
-18.5196
-17.7706
-17.1095
-16.516
-15.9769
-15.4853
-15.0347
-14.6191
-14.2337
-13.8746
-13.5387
-13.2233
-12.9261
-12.6452
-12.3789
-12.126
-11.885
-11.6551
-11.4353
-11.2247
-11.0226
-10.8285
-10.6417
-10.4617
-10.288
-10.1203
-9.95821
-9.80131
-9.64933
-9.50199
-9.35902
-9.2202
-9.08529
-8.9541
-8.82644
-8.70215
-8.58105
-8.463
-8.34787
-8.23552
-8.12583
-8.0187
-7.914
-7.81166
-7.71157
-7.61364
-7.51779
-7.42395
-7.33205
-7.242
-7.15376
-7.06725
-6.98242
-6.8992
-6.81756
-6.73744
-6.65878
-6.58155
-6.50571
-6.4312
-6.35799
-6.28605
-6.21534
-6.14582
-6.07746
-6.01023
-5.94409
-5.87903
-5.81501
-5.752
-5.68999
-5.62893
-5.56883
-5.50963
-5.45134
-5.39392
-5.33736
-5.28164
-5.22673
-5.17262
-5.11929
-5.06673
-5.01491
-4.96383
-4.91346
-4.8638
-4.81482
-4.76652
-4.71888
-4.67189
-4.62554
-4.5798
-4.53468
-4.49016
-4.44623
-4.40288
-4.36009
-4.31786
-4.27618
-4.23503
-4.19442
-4.15432
-4.11474
-4.07565
-4.03706
-3.99896
-3.96133
-3.92418
-3.88748
-3.85124
-3.81545
-3.7801
-3.74518
-3.7107
-3.67663
-3.64297
-3.60973
-3.57689
-3.54444
-3.51238
-3.48071
-3.44942
-3.41851
-3.38796
-3.35778
-3.32795
-3.29848
-3.26936
-3.24058
-3.21214
-3.18404
-3.15626
-3.12881
-3.10169
-3.07488
-3.04839
-3.0222
-2.99632
-2.97074
-2.94546
-2.92047
-2.89577
-2.87136
-2.84723
-2.82338
-2.7998
-2.77649
-2.75346
-2.73069
-2.70818
-2.68593
-2.66393
-2.64219
-2.62069
-2.59944
-2.57844
-2.55767
-2.53714
-2.51684
-2.49678
-2.47694
-2.45732
-2.43793
-2.41876
-2.3998
-2.38106
-2.36252
-2.3442
-2.32608
-2.30816
-2.29044
-2.27292
-2.2556
-2.23846
-2.22152
-2.20476
-2.18819
-2.1718
-2.15559
-2.13955
-2.12369
-2.108
-2.09248
-2.07713
-2.06195
-2.04692
-2.03206
-2.01735
-2.0028
-1.9884
-1.97415
-1.96005
-1.9461
-1.93229
-1.91863
-1.9051
-1.89171
-1.87845
-1.86533
-1.85234
-1.83948
-1.82675
-1.81413
-1.80165
-1.78928
-1.77703
-1.7649
-1.75288
-1.74097
-1.72917
-1.71748
-1.7059
-1.69443
-1.68305
-1.67178
-1.6606
-1.64952
-1.63854
-1.62765
-1.61685
-1.60614
-1.59552
-1.58498
-1.57453
-1.56416
-1.55387
-1.54366
-1.53353
-1.52348
-1.51349
-1.50359
-1.49375
-1.48398
-1.47428
-1.46464
-1.45507
-1.44556
-1.43612
-1.42673
-1.4174
-1.40813
-1.39891
-1.38974
-1.38062
-1.37156
-1.36254
-1.35356
-1.34463
-1.33574
-1.32689
-1.31808
-1.3093
-1.30055
-1.29184
-1.28315
-1.27449
-1.26584
-1.25722
-1.24862
-1.24002
-1.23144
-1.22287
-1.21429
-1.20572
-1.19715
-1.18856
-1.17996
-1.17135
-1.16272
-1.15406
-1.14537
-1.13665
-1.12789
-1.11908
-1.11022
-1.10131
-1.09234
-1.0833
-1.07419
-1.065
-1.05573
-1.04637
-1.03692
-1.02736
-1.0177
-1.00793
-0.99804
-0.988028
-0.97789
-0.96762
-0.957215
-0.94667
-0.935982
-0.925149
-0.914168
-0.903037
-0.891756
-0.880325
-0.868745
-0.857017
-0.845143
-0.833127
-0.820973
-0.808687
-0.796274
-0.783742
-0.771099
-0.758352
-0.745513
-0.732591
-0.719596
-0.706542
-0.69344
-0.680302
-0.667142
-0.653973
-0.640808
-0.62766
-0.614544
-0.601472
-0.588458
-0.575515
-0.562654
-0.549889
-0.537231
-0.52469
-0.512278
-0.500004
-0.487878
-0.475907
-0.464099
-0.452462
-0.441
-0.429721
-0.418628
-0.407724
-0.397014
-0.386499
-0.37618
-0.36606
-0.356137
-0.346412
-0.336883
-0.327548
-0.318406
-0.309453
-0.300686
-0.292102
-0.283697
-0.275465
-0.267402
-0.259502
-0.251761
-0.244172
-0.23673
-0.229428
-0.222259
-0.215218
-0.208298
-0.201491
-0.194792
-0.188194
-0.18169
-0.175272
-0.168936
-0.162673
-0.156478
-0.150344
-0.144265
-0.138235
-0.132248
-0.126299
-0.120381
-0.114491
-0.108622
-0.102771
-0.0969341
-0.0911063
-0.085285
-0.0794671
-0.0736503
-0.0678327
-0.0620129
-0.0561899
-0.0503635
-0.0445342
-0.0387039
-0.0328759
-0.0270546
-0.0212486
-0.0154554
-0.00973625
-0.00382945
0.000988562
0.0112679
-21.4603
-21.0968
-20.31
-19.5051
-18.7838
-18.0971
-17.4496
-16.8562
-16.3126
-15.8115
-15.3485
-14.9197
-14.5212
-14.1494
-13.8013
-13.4743
-13.1663
-12.8753
-12.5997
-12.3379
-12.0888
-11.8512
-11.6242
-11.4069
-11.1985
-10.9985
-10.8061
-10.6209
-10.4423
-10.2699
-10.1034
-9.94229
-9.78634
-9.63523
-9.48868
-9.34644
-9.20828
-9.07399
-8.94337
-8.81624
-8.69243
-8.57178
-8.45416
-8.33942
-8.22744
-8.11809
-8.01128
-7.90688
-7.80482
-7.70499
-7.60732
-7.51171
-7.41809
-7.32639
-7.23655
-7.14849
-7.06216
-6.97749
-6.89444
-6.81295
-6.73297
-6.65445
-6.57736
-6.50163
-6.42725
-6.35415
-6.28232
-6.21171
-6.14229
-6.07402
-6.00688
-5.94084
-5.87586
-5.81192
-5.74899
-5.68705
-5.62607
-5.56602
-5.5069
-5.44867
-5.39131
-5.33481
-5.27914
-5.22429
-5.17023
-5.11695
-5.06444
-5.01267
-4.96163
-4.91131
-4.86169
-4.81276
-4.7645
-4.7169
-4.66994
-4.62362
-4.57793
-4.53284
-4.48835
-4.44445
-4.40113
-4.35837
-4.31617
-4.27452
-4.2334
-4.19282
-4.15275
-4.11319
-4.07413
-4.03556
-3.99748
-3.95988
-3.92275
-3.88607
-3.84986
-3.81408
-3.77875
-3.74386
-3.70939
-3.67534
-3.6417
-3.60848
-3.57565
-3.54322
-3.51119
-3.47953
-3.44826
-3.41736
-3.38683
-3.35666
-3.32685
-3.29739
-3.26828
-3.23952
-3.21109
-3.183
-3.15524
-3.12781
-3.1007
-3.0739
-3.04742
-3.02124
-2.99538
-2.96981
-2.94454
-2.91956
-2.89487
-2.87047
-2.84635
-2.82251
-2.79895
-2.77565
-2.75263
-2.72987
-2.70737
-2.68513
-2.66314
-2.64141
-2.61992
-2.59868
-2.57769
-2.55693
-2.53641
-2.51612
-2.49606
-2.47623
-2.45663
-2.43724
-2.41808
-2.39913
-2.38039
-2.36187
-2.34355
-2.32544
-2.30753
-2.28982
-2.27231
-2.25499
-2.23787
-2.22093
-2.20418
-2.18762
-2.17123
-2.15503
-2.139
-2.12315
-2.10747
-2.09196
-2.07661
-2.06143
-2.04642
-2.03156
-2.01686
-2.00232
-1.98792
-1.97368
-1.95959
-1.94565
-1.93184
-1.91818
-1.90466
-1.89128
-1.87803
-1.86491
-1.85193
-1.83907
-1.82634
-1.81374
-1.80126
-1.78889
-1.77665
-1.76452
-1.75251
-1.74061
-1.72881
-1.71713
-1.70555
-1.69408
-1.68271
-1.67144
-1.66027
-1.64919
-1.63821
-1.62732
-1.61653
-1.60582
-1.5952
-1.58467
-1.57422
-1.56385
-1.55357
-1.54336
-1.53323
-1.52317
-1.51319
-1.50328
-1.49345
-1.48368
-1.47398
-1.46434
-1.45477
-1.44526
-1.43581
-1.42642
-1.41709
-1.40781
-1.39859
-1.38942
-1.3803
-1.37123
-1.3622
-1.35322
-1.34428
-1.33539
-1.32653
-1.31771
-1.30892
-1.30017
-1.29144
-1.28274
-1.27407
-1.26542
-1.25678
-1.24817
-1.23956
-1.23097
-1.22238
-1.21379
-1.20521
-1.19662
-1.18802
-1.17941
-1.17078
-1.16214
-1.15347
-1.14476
-1.13603
-1.12725
-1.11844
-1.10957
-1.10065
-1.09167
-1.08262
-1.0735
-1.06431
-1.05504
-1.04567
-1.03622
-1.02667
-1.01701
-1.00724
-0.997364
-0.987363
-0.977239
-0.966985
-0.956598
-0.946074
-0.935409
-0.924601
-0.913648
-0.902548
-0.8913
-0.879904
-0.868361
-0.856671
-0.844838
-0.832863
-0.820753
-0.808511
-0.796143
-0.783656
-0.771059
-0.758359
-0.745566
-0.73269
-0.719742
-0.706734
-0.693677
-0.680583
-0.667467
-0.65434
-0.641217
-0.62811
-0.615033
-0.602
-0.589022
-0.576114
-0.563288
-0.550556
-0.537929
-0.525419
-0.513035
-0.500789
-0.488688
-0.476742
-0.464957
-0.453342
-0.441902
-0.430642
-0.419567
-0.40868
-0.397986
-0.387486
-0.377181
-0.367073
-0.357162
-0.347447
-0.337927
-0.328601
-0.319466
-0.31052
-0.301759
-0.29318
-0.284778
-0.276549
-0.268488
-0.26059
-0.252849
-0.24526
-0.237816
-0.230512
-0.223341
-0.216297
-0.209372
-0.202561
-0.195857
-0.189252
-0.182741
-0.176316
-0.169972
-0.1637
-0.157496
-0.151352
-0.145262
-0.13922
-0.133221
-0.127259
-0.121328
-0.115424
-0.10954
-0.103674
-0.0978201
-0.0919751
-0.0861355
-0.0802984
-0.0744612
-0.0686218
-0.0627785
-0.0569301
-0.0510756
-0.0452151
-0.0393494
-0.0334804
-0.0276107
-0.0217458
-0.0158793
-0.0100653
-0.00403357
0.000942861
0.0115427
-20.0609
-19.8646
-19.3748
-18.7872
-18.2097
-17.6408
-17.0866
-16.562
-16.0707
-15.6106
-15.1797
-14.7762
-14.398
-14.0425
-13.7079
-13.392
-13.0933
-12.8101
-12.541
-12.2849
-12.0407
-11.8073
-11.584
-11.37
-11.1645
-10.967
-10.7769
-10.5937
-10.4169
-10.2462
-10.0812
-9.92143
-9.76671
-9.61673
-9.47121
-9.32991
-9.19262
-9.05913
-8.92926
-8.80281
-8.67964
-8.55959
-8.44251
-8.32828
-8.21678
-8.10788
-8.00149
-7.89749
-7.7958
-7.69632
-7.59897
-7.50367
-7.41034
-7.31892
-7.22933
-7.14152
-7.05542
-6.97098
-6.88814
-6.80685
-6.72706
-6.64872
-6.5718
-6.49624
-6.42201
-6.34907
-6.27738
-6.20691
-6.13761
-6.06947
-6.00245
-5.93652
-5.87165
-5.80782
-5.74499
-5.68315
-5.62226
-5.56231
-5.50327
-5.44513
-5.38785
-5.33142
-5.27583
-5.22105
-5.16706
-5.11385
-5.0614
-5.0097
-4.95872
-4.90846
-4.8589
-4.81002
-4.76181
-4.71426
-4.66736
-4.62109
-4.57544
-4.5304
-4.48595
-4.44209
-4.39881
-4.3561
-4.31394
-4.27232
-4.23124
-4.19069
-4.15066
-4.11113
-4.07211
-4.03357
-3.99552
-3.95795
-3.92085
-3.88421
-3.84802
-3.81227
-3.77697
-3.7421
-3.70766
-3.67363
-3.64002
-3.60682
-3.57402
-3.54161
-3.5096
-3.47797
-3.44671
-3.41583
-3.38532
-3.35518
-3.32539
-3.29595
-3.26686
-3.23811
-3.20971
-3.18164
-3.15389
-3.12648
-3.09938
-3.0726
-3.04614
-3.01998
-2.99413
-2.96858
-2.94332
-2.91836
-2.89369
-2.8693
-2.8452
-2.82137
-2.79782
-2.77454
-2.75153
-2.72878
-2.7063
-2.68407
-2.6621
-2.64038
-2.6189
-2.59768
-2.57669
-2.55595
-2.53544
-2.51516
-2.49512
-2.4753
-2.45571
-2.43633
-2.41718
-2.39824
-2.37952
-2.36101
-2.3427
-2.3246
-2.3067
-2.289
-2.2715
-2.2542
-2.23708
-2.22016
-2.20342
-2.18686
-2.17049
-2.1543
-2.13828
-2.12244
-2.10677
-2.09126
-2.07593
-2.06076
-2.04575
-2.0309
-2.01621
-2.00168
-1.9873
-1.97307
-1.95898
-1.94505
-1.93125
-1.9176
-1.90409
-1.89072
-1.87748
-1.86437
-1.85139
-1.83854
-1.82582
-1.81323
-1.80075
-1.7884
-1.77616
-1.76404
-1.75203
-1.74014
-1.72835
-1.71668
-1.70511
-1.69364
-1.68228
-1.67101
-1.65985
-1.64878
-1.63781
-1.62692
-1.61613
-1.60543
-1.59482
-1.58429
-1.57385
-1.56349
-1.5532
-1.543
-1.53288
-1.52283
-1.51285
-1.50294
-1.49311
-1.48334
-1.47365
-1.46401
-1.45444
-1.44493
-1.43549
-1.4261
-1.41677
-1.40749
-1.39827
-1.3891
-1.37998
-1.3709
-1.36188
-1.35289
-1.34395
-1.33506
-1.32619
-1.31737
-1.30858
-1.29982
-1.29109
-1.28238
-1.2737
-1.26505
-1.25641
-1.24778
-1.23917
-1.23057
-1.22197
-1.21338
-1.20479
-1.19619
-1.18758
-1.17896
-1.17033
-1.16168
-1.153
-1.14429
-1.13555
-1.12676
-1.11794
-1.10907
-1.10014
-1.09116
-1.08211
-1.07299
-1.0638
-1.05453
-1.04517
-1.03572
-1.02618
-1.01653
-1.00677
-0.996906
-0.986922
-0.976815
-0.966581
-0.956217
-0.945718
-0.935081
-0.924303
-0.913382
-0.902316
-0.891105
-0.879747
-0.868243
-0.856596
-0.844805
-0.832876
-0.820811
-0.808616
-0.796295
-0.783857
-0.771308
-0.758656
-0.745911
-0.733084
-0.720183
-0.707222
-0.694211
-0.681163
-0.668091
-0.655007
-0.641925
-0.628859
-0.615821
-0.602825
-0.589884
-0.57701
-0.564217
-0.551516
-0.538919
-0.526437
-0.51408
-0.501859
-0.489782
-0.477857
-0.466093
-0.454497
-0.443074
-0.43183
-0.42077
-0.409897
-0.399215
-0.388725
-0.37843
-0.368331
-0.358427
-0.348718
-0.339203
-0.329881
-0.320749
-0.311804
-0.303044
-0.294464
-0.286061
-0.27783
-0.269766
-0.261864
-0.254118
-0.246523
-0.239073
-0.231761
-0.224582
-0.217528
-0.210594
-0.203772
-0.197057
-0.19044
-0.183916
-0.177478
-0.171119
-0.164833
-0.158613
-0.152453
-0.146347
-0.140288
-0.134271
-0.12829
-0.12234
-0.116415
-0.110511
-0.104623
-0.098747
-0.0928789
-0.0870153
-0.081153
-0.0752893
-0.069422
-0.063549
-0.0576685
-0.0517793
-0.0458805
-0.0399719
-0.0340543
-0.0281279
-0.022196
-0.0162484
-0.010335
-0.00417579
0.00094171
0.0118371
-18.9715
-18.8555
-18.5339
-18.0997
-17.6386
-17.1687
-16.6982
-16.2398
-15.8006
-15.3823
-14.9853
-14.6091
-14.2532
-13.9161
-13.5967
-13.2935
-13.0055
-12.7314
-12.4701
-12.2207
-11.9823
-11.754
-11.5351
-11.325
-11.123
-10.9285
-10.7412
-10.5604
-10.3859
-10.2171
-10.0539
-9.89582
-9.7426
-9.59398
-9.44972
-9.30957
-9.17335
-9.04084
-8.91186
-8.78625
-8.66386
-8.54453
-8.42813
-8.31453
-8.20361
-8.09527
-7.98939
-7.88587
-7.78463
-7.68558
-7.58863
-7.49371
-7.40074
-7.30966
-7.2204
-7.13289
-7.04708
-6.96291
-6.88033
-6.79928
-6.71973
-6.64161
-6.5649
-6.48955
-6.41551
-6.34275
-6.27124
-6.20094
-6.13181
-6.06382
-5.99695
-5.93116
-5.86643
-5.80273
-5.74002
-5.6783
-5.61753
-5.55769
-5.49876
-5.44072
-5.38354
-5.32721
-5.27171
-5.21702
-5.16312
-5.10999
-5.05763
-5.006
-4.9551
-4.90491
-4.85542
-4.80661
-4.75847
-4.71098
-4.66414
-4.61793
-4.57234
-4.52735
-4.48296
-4.43916
-4.39593
-4.35326
-4.31115
-4.26958
-4.22855
-4.18804
-4.14805
-4.10857
-4.06959
-4.0311
-3.99309
-3.95555
-3.91848
-3.88188
-3.84572
-3.81002
-3.77475
-3.73991
-3.7055
-3.67151
-3.63793
-3.60475
-3.57198
-3.53961
-3.50762
-3.47601
-3.44479
-3.41394
-3.38345
-3.35333
-3.32356
-3.29415
-3.26509
-3.23636
-3.20798
-3.17993
-3.15221
-3.12482
-3.09774
-3.07098
-3.04454
-3.0184
-2.99257
-2.96704
-2.9418
-2.91686
-2.89221
-2.86784
-2.84375
-2.81995
-2.79641
-2.77315
-2.75016
-2.72743
-2.70496
-2.68275
-2.66079
-2.63909
-2.61763
-2.59642
-2.57545
-2.55472
-2.53423
-2.51397
-2.49394
-2.47414
-2.45456
-2.4352
-2.41606
-2.39714
-2.37843
-2.35993
-2.34164
-2.32355
-2.30567
-2.28798
-2.2705
-2.2532
-2.2361
-2.21919
-2.20246
-2.18592
-2.16956
-2.15338
-2.13738
-2.12155
-2.10589
-2.0904
-2.07508
-2.05992
-2.04493
-2.03009
-2.01541
-2.00089
-1.98652
-1.9723
-1.95823
-1.9443
-1.93052
-1.91688
-1.90338
-1.89002
-1.87679
-1.86369
-1.85073
-1.83789
-1.82518
-1.81259
-1.80013
-1.78779
-1.77556
-1.76345
-1.75145
-1.73957
-1.7278
-1.71613
-1.70457
-1.69311
-1.68176
-1.6705
-1.65935
-1.64829
-1.63732
-1.62645
-1.61567
-1.60498
-1.59437
-1.58385
-1.57342
-1.56306
-1.55279
-1.5426
-1.53248
-1.52243
-1.51246
-1.50257
-1.49274
-1.48298
-1.47329
-1.46366
-1.45409
-1.44459
-1.43515
-1.42577
-1.41644
-1.40717
-1.39795
-1.38878
-1.37966
-1.37059
-1.36157
-1.35259
-1.34365
-1.33475
-1.32589
-1.31706
-1.30827
-1.29951
-1.29078
-1.28208
-1.2734
-1.26474
-1.25609
-1.24747
-1.23885
-1.23025
-1.22165
-1.21305
-1.20446
-1.19586
-1.18725
-1.17863
-1.16999
-1.16133
-1.15265
-1.14394
-1.13519
-1.12641
-1.11759
-1.10872
-1.09979
-1.09081
-1.08176
-1.07265
-1.06346
-1.0542
-1.04485
-1.03541
-1.02588
-1.01624
-1.0065
-0.996655
-0.986691
-0.976606
-0.966397
-0.95606
-0.94559
-0.934984
-0.92424
-0.913354
-0.902326
-0.891155
-0.879839
-0.868379
-0.856776
-0.845032
-0.83315
-0.821134
-0.808988
-0.796718
-0.78433
-0.771831
-0.75923
-0.746536
-0.733758
-0.720907
-0.707994
-0.69503
-0.682029
-0.669002
-0.655962
-0.642922
-0.629896
-0.616897
-0.603939
-0.591033
-0.578193
-0.565432
-0.552761
-0.540192
-0.527737
-0.515405
-0.503206
-0.49115
-0.479245
-0.467499
-0.455919
-0.44451
-0.433279
-0.42223
-0.411367
-0.400693
-0.390211
-0.379921
-0.369826
-0.359925
-0.350217
-0.340703
-0.331379
-0.322245
-0.313297
-0.304533
-0.295947
-0.287538
-0.279299
-0.271226
-0.263315
-0.255558
-0.247952
-0.240489
-0.233165
-0.225971
-0.218903
-0.211953
-0.205115
-0.198382
-0.191747
-0.185205
-0.178747
-0.172368
-0.166061
-0.15982
-0.153638
-0.147509
-0.141427
-0.135386
-0.12938
-0.123405
-0.117455
-0.111524
-0.105609
-0.0997052
-0.0938084
-0.0879151
-0.0820221
-0.0761265
-0.0702256
-0.0643173
-0.0583993
-0.0524697
-0.046527
-0.04057
-0.0345981
-0.0286101
-0.0226069
-0.0165757
-0.0105639
-0.00428338
0.000959403
0.0121098
-18.0816
-18.0046
-17.7794
-17.4531
-17.0856
-16.698
-16.2996
-15.9015
-15.5119
-15.1345
-14.7713
-14.4233
-14.0906
-13.7731
-13.47
-13.1808
-12.9046
-12.6406
-12.388
-12.1462
-11.9143
-11.6918
-11.478
-11.2723
-11.0743
-10.8834
-10.6992
-10.5213
-10.3493
-10.1829
-10.0218
-9.86562
-9.71415
-9.56713
-9.42433
-9.28554
-9.15055
-9.01919
-8.89128
-8.76665
-8.64517
-8.52669
-8.41108
-8.29822
-8.188
-8.0803
-7.97502
-7.87208
-7.77138
-7.67283
-7.57635
-7.48188
-7.38934
-7.29865
-7.20977
-7.12262
-7.03715
-6.9533
-6.87103
-6.79027
-6.711
-6.63315
-6.55669
-6.48157
-6.40777
-6.33523
-6.26392
-6.19382
-6.12488
-6.05708
-5.99039
-5.92477
-5.8602
-5.79665
-5.7341
-5.67252
-5.61189
-5.55218
-5.49338
-5.43546
-5.3784
-5.32219
-5.2668
-5.21221
-5.15841
-5.10538
-5.05311
-5.00158
-4.95077
-4.90066
-4.85126
-4.80253
-4.75447
-4.70706
-4.66029
-4.61415
-4.56863
-4.52371
-4.47939
-4.43565
-4.39248
-4.34987
-4.30782
-4.26631
-4.22533
-4.18488
-4.14494
-4.10551
-4.06657
-4.02813
-3.99017
-3.95268
-3.91566
-3.87909
-3.84298
-3.80732
-3.77209
-3.73729
-3.70292
-3.66896
-3.63542
-3.60228
-3.56955
-3.5372
-3.50525
-3.47368
-3.44248
-3.41166
-3.38121
-3.35112
-3.32138
-3.292
-3.26296
-3.23427
-3.20591
-3.17789
-3.1502
-3.12283
-3.09578
-3.06905
-3.04263
-3.01651
-2.99071
-2.9652
-2.93999
-2.91507
-2.89043
-2.86609
-2.84203
-2.81824
-2.79473
-2.77149
-2.74851
-2.7258
-2.70336
-2.68117
-2.65923
-2.63754
-2.61611
-2.59492
-2.57397
-2.55326
-2.53278
-2.51254
-2.49253
-2.47274
-2.45318
-2.43384
-2.41472
-2.39582
-2.37712
-2.35864
-2.34037
-2.3223
-2.30443
-2.28676
-2.26929
-2.25201
-2.23493
-2.21803
-2.20132
-2.1848
-2.16845
-2.15229
-2.1363
-2.12048
-2.10484
-2.08937
-2.07406
-2.05892
-2.04394
-2.02912
-2.01445
-1.99994
-1.98559
-1.97138
-1.95733
-1.94342
-1.92965
-1.91602
-1.90254
-1.88919
-1.87597
-1.86289
-1.84994
-1.83711
-1.82442
-1.81184
-1.79939
-1.78706
-1.77485
-1.76275
-1.75077
-1.7389
-1.72714
-1.71548
-1.70393
-1.69249
-1.68115
-1.66991
-1.65876
-1.64771
-1.63676
-1.6259
-1.61513
-1.60445
-1.59386
-1.58335
-1.57292
-1.56258
-1.55232
-1.54213
-1.53203
-1.52199
-1.51203
-1.50215
-1.49233
-1.48258
-1.47289
-1.46328
-1.45372
-1.44423
-1.43479
-1.42542
-1.4161
-1.40683
-1.39762
-1.38846
-1.37935
-1.37028
-1.36126
-1.35229
-1.34336
-1.33446
-1.32561
-1.31679
-1.308
-1.29924
-1.29051
-1.28181
-1.27313
-1.26448
-1.25584
-1.24721
-1.2386
-1.23
-1.2214
-1.21281
-1.20421
-1.19561
-1.187
-1.17839
-1.16975
-1.1611
-1.15242
-1.14371
-1.13497
-1.12619
-1.11737
-1.1085
-1.09958
-1.09061
-1.08157
-1.07247
-1.06329
-1.05404
-1.0447
-1.03528
-1.02576
-1.01615
-1.00643
-0.9966
-0.98666
-0.976601
-0.966421
-0.956114
-0.945677
-0.935106
-0.924399
-0.913553
-0.902566
-0.891437
-0.880166
-0.868753
-0.857198
-0.845503
-0.833672
-0.821708
-0.809614
-0.797396
-0.785061
-0.772616
-0.760068
-0.747426
-0.7347
-0.7219
-0.709037
-0.696122
-0.683168
-0.670187
-0.657191
-0.644195
-0.63121
-0.61825
-0.605329
-0.592458
-0.579652
-0.566921
-0.55428
-0.541738
-0.529307
-0.516998
-0.504821
-0.492784
-0.480896
-0.469165
-0.457598
-0.446201
-0.43498
-0.423939
-0.413082
-0.402413
-0.391933
-0.381645
-0.371549
-0.361647
-0.351936
-0.342417
-0.333088
-0.323947
-0.314991
-0.306216
-0.297621
-0.289199
-0.280947
-0.27286
-0.264933
-0.257161
-0.249537
-0.242057
-0.234713
-0.2275
-0.22041
-0.213439
-0.206578
-0.199822
-0.193164
-0.186596
-0.180113
-0.173708
-0.167375
-0.161106
-0.154896
-0.148738
-0.142627
-0.136557
-0.130521
-0.124515
-0.118533
-0.112571
-0.106623
-0.100686
-0.0947552
-0.0888271
-0.0828983
-0.0769657
-0.0710265
-0.065078
-0.0591178
-0.0531433
-0.0471523
-0.0411428
-0.0351132
-0.0290609
-0.0229854
-0.0168716
-0.0107658
-0.00437393
0.000980066
0.0123415
-17.3266
-17.2709
-17.1054
-16.8549
-16.5598
-16.2388
-15.9009
-15.556
-15.2118
-14.8732
-14.5429
-14.2227
-13.9136
-13.6161
-13.3302
-13.0556
-12.792
-12.5389
-12.2958
-12.0622
-11.8375
-11.6214
-11.4132
-11.2125
-11.0189
-10.8319
-10.6513
-10.4766
-10.3075
-10.1437
-9.98498
-9.83099
-9.6815
-9.5363
-9.39517
-9.25791
-9.12434
-8.99429
-8.86758
-8.74408
-8.62365
-8.50614
-8.39144
-8.27942
-8.16999
-8.06303
-7.95845
-7.85616
-7.75607
-7.6581
-7.56217
-7.46821
-7.37615
-7.28593
-7.19748
-7.11074
-7.02566
-6.94219
-6.86026
-6.77985
-6.70089
-6.62334
-6.54717
-6.47234
-6.39879
-6.32651
-6.25545
-6.18557
-6.11686
-6.04927
-5.98278
-5.91735
-5.85297
-5.7896
-5.72722
-5.6658
-5.60533
-5.54578
-5.48713
-5.42935
-5.37243
-5.31635
-5.26108
-5.20662
-5.15294
-5.10003
-5.04787
-4.99644
-4.94573
-4.89573
-4.84642
-4.79779
-4.74982
-4.7025
-4.65581
-4.60976
-4.56432
-4.51948
-4.47523
-4.43156
-4.38847
-4.34593
-4.30394
-4.2625
-4.22158
-4.18119
-4.14132
-4.10194
-4.06307
-4.02468
-3.98677
-3.94933
-3.91236
-3.87585
-3.83979
-3.80417
-3.76899
-3.73424
-3.69991
-3.666
-3.6325
-3.5994
-3.56671
-3.5344
-3.50249
-3.47096
-3.4398
-3.40902
-3.3786
-3.34854
-3.31884
-3.28949
-3.26049
-3.23182
-3.2035
-3.17551
-3.14785
-3.12051
-3.09349
-3.06679
-3.0404
-3.01431
-2.98853
-2.96305
-2.93787
-2.91297
-2.88837
-2.86405
-2.84001
-2.81625
-2.79276
-2.76954
-2.7466
-2.72391
-2.70149
-2.67932
-2.65741
-2.63574
-2.61433
-2.59316
-2.57223
-2.55154
-2.53109
-2.51087
-2.49088
-2.47111
-2.45157
-2.43226
-2.41315
-2.39427
-2.3756
-2.35714
-2.33888
-2.32083
-2.30298
-2.28533
-2.26788
-2.25062
-2.23356
-2.21668
-2.19999
-2.18348
-2.16716
-2.15101
-2.13504
-2.11924
-2.10362
-2.08816
-2.07287
-2.05775
-2.04278
-2.02798
-2.01333
-1.99884
-1.9845
-1.97032
-1.95628
-1.94238
-1.92863
-1.91502
-1.90155
-1.88822
-1.87502
-1.86195
-1.84902
-1.83621
-1.82353
-1.81097
-1.79854
-1.78622
-1.77402
-1.76194
-1.74997
-1.73812
-1.72637
-1.71473
-1.7032
-1.69177
-1.68044
-1.66922
-1.65809
-1.64705
-1.63612
-1.62527
-1.61451
-1.60385
-1.59327
-1.58277
-1.57236
-1.56203
-1.55179
-1.54161
-1.53152
-1.5215
-1.51155
-1.50168
-1.49187
-1.48213
-1.47246
-1.46286
-1.45331
-1.44383
-1.43441
-1.42504
-1.41573
-1.40648
-1.39728
-1.38813
-1.37902
-1.36997
-1.36096
-1.35199
-1.34307
-1.33418
-1.32534
-1.31652
-1.30774
-1.299
-1.29028
-1.28158
-1.27291
-1.26426
-1.25563
-1.24701
-1.2384
-1.22981
-1.22122
-1.21263
-1.20404
-1.19545
-1.18685
-1.17823
-1.16961
-1.16096
-1.15229
-1.14359
-1.13485
-1.12608
-1.11727
-1.10842
-1.09951
-1.09055
-1.08152
-1.07243
-1.06327
-1.05403
-1.04472
-1.03531
-1.02582
-1.01622
-1.00653
-0.996727
-0.986815
-0.976787
-0.966638
-0.956365
-0.945964
-0.935432
-0.924765
-0.913961
-0.903018
-0.891936
-0.880713
-0.869349
-0.857845
-0.846202
-0.834424
-0.822514
-0.810475
-0.798312
-0.786032
-0.773642
-0.761149
-0.748562
-0.735889
-0.723142
-0.710331
-0.697467
-0.684562
-0.671628
-0.658678
-0.645725
-0.632782
-0.619861
-0.606977
-0.594142
-0.581368
-0.568669
-0.556055
-0.54354
-0.531133
-0.518845
-0.506687
-0.494667
-0.482794
-0.471076
-0.45952
-0.448132
-0.436917
-0.425881
-0.415027
-0.404358
-0.393878
-0.383587
-0.373487
-0.363579
-0.353861
-0.344333
-0.334993
-0.32584
-0.316871
-0.308082
-0.29947
-0.291031
-0.282761
-0.274654
-0.266707
-0.258913
-0.251266
-0.243762
-0.236393
-0.229154
-0.222038
-0.215039
-0.20815
-0.201364