/*--------------------------------*- C++ -*----------------------------------*\
| =========                 |                                                 |
| \\      /  F ield         | OpenFOAM: The Open Source CFD Toolbox           |
|  \\    /   O peration     | Version:  2506                                  |
|   \\  /    A nd           | Website:  www.openfoam.com                      |
|    \\/     M anipulation  |                                                 |
\*---------------------------------------------------------------------------*/
FoamFile
{
    version     2.0;
    format      ascii;
    arch        "LSB;label=32;scalar=64";
    class       surfaceScalarField;
    location    "300";
    object      phi;
}
// * * * * * * * * * * * * * * * * * * * * * * * * * * * * * * * * * * * * * //

dimensions      [0 3 -1 0 0 0 0];

oriented        oriented;

internalField   nonuniform List<scalar> 
266147
(
0.00237347
0.000117012
0.0023151
5.83701e-05
0.00227865
3.64515e-05
0.00225492
2.37321e-05
0.00223811
1.68138e-05
0.00222486
1.3242e-05
0.00221384
1.10278e-05
0.00220439
9.44648e-06
0.00219611
8.27842e-06
0.00218873
7.38386e-06
0.00218206
6.66908e-06
0.00217598
6.08238e-06
0.00217038
5.59219e-06
0.00216521
5.17614e-06
0.00216039
4.81817e-06
0.00215588
4.50671e-06
0.00215165
4.23313e-06
0.00214766
3.99081e-06
0.00214388
3.77458e-06
0.0021403
3.58038e-06
0.0021369
3.40494e-06
0.00213365
3.2456e-06
0.00213055
3.10021e-06
0.00212758
2.96696e-06
0.00212474
2.84435e-06
0.00212201
2.73112e-06
0.00211938
2.62621e-06
0.00211685
2.5287e-06
0.00211442
2.4378e-06
0.00211206
2.35285e-06
0.00210979
2.27325e-06
0.00210759
2.1985e-06
0.00210546
2.12814e-06
0.0021034
2.06178e-06
0.0021014
1.99907e-06
0.00209946
1.9397e-06
0.00209758
1.88341e-06
0.00209575
1.82993e-06
0.00209397
1.77906e-06
0.00209224
1.7306e-06
0.00209055
1.68436e-06
0.00208891
1.64019e-06
0.00208731
1.59794e-06
0.00208576
1.55747e-06
0.00208424
1.51868e-06
0.00208276
1.48144e-06
0.00208131
1.44566e-06
0.0020799
1.41125e-06
0.00207852
1.37812e-06
0.00207717
1.34619e-06
0.00207586
1.31539e-06
0.00207457
1.28566e-06
0.00207332
1.25694e-06
0.00207209
1.22917e-06
0.00207088
1.20229e-06
0.00206971
1.17626e-06
0.00206856
1.15103e-06
0.00206743
1.12657e-06
0.00206633
1.10283e-06
0.00206525
1.07977e-06
0.00206419
1.05737e-06
0.00206315
1.03558e-06
0.00206214
1.01439e-06
0.00206115
9.93753e-07
0.00206017
9.73656e-07
0.00205922
9.5407e-07
0.00205828
9.34972e-07
0.00205737
9.1634e-07
0.00205647
8.98152e-07
0.00205559
8.80391e-07
0.00205472
8.63037e-07
0.00205388
8.46073e-07
0.00205305
8.29483e-07
0.00205224
8.13251e-07
0.00205144
7.97362e-07
0.00205066
7.81803e-07
0.00204989
7.6656e-07
0.00204914
7.5162e-07
0.0020484
7.36973e-07
0.00204768
7.22607e-07
0.00204697
7.0851e-07
0.00204627
6.94673e-07
0.00204559
6.81086e-07
0.00204493
6.67739e-07
0.00204427
6.54625e-07
0.00204363
6.41734e-07
0.002043
6.29059e-07
0.00204238
6.16592e-07
0.00204178
6.04325e-07
0.00204119
5.92253e-07
0.00204061
5.80368e-07
0.00204004
5.68664e-07
0.00203948
5.57135e-07
0.00203893
5.45776e-07
0.0020384
5.34581e-07
0.00203788
5.23546e-07
0.00203736
5.12664e-07
0.00203686
5.01932e-07
0.00203637
4.91345e-07
0.00203589
4.80899e-07
0.00203542
4.7059e-07
0.00203496
4.60414e-07
0.00203451
4.50368e-07
0.00203407
4.40447e-07
0.00203364
4.30649e-07
0.00203322
4.2097e-07
0.0020328
4.11407e-07
0.0020324
4.01958e-07
0.00203201
3.9262e-07
0.00203163
3.8339e-07
0.00203125
3.74266e-07
0.00203089
3.65245e-07
0.00203053
3.56326e-07
0.00203018
3.47505e-07
0.00202984
3.38782e-07
0.00202951
3.30154e-07
0.00202919
3.2162e-07
0.00202888
3.13178e-07
0.00202857
3.04826e-07
0.00202828
2.96563e-07
0.00202799
2.88387e-07
0.00202771
2.80297e-07
0.00202744
2.72292e-07
0.00202717
2.6437e-07
0.00202691
2.5653e-07
0.00202667
2.48771e-07
0.00202642
2.41093e-07
0.00202619
2.33493e-07
0.00202597
2.25972e-07
0.00202575
2.18527e-07
0.00202554
2.11159e-07
0.00202533
2.03867e-07
0.00202513
1.96649e-07
0.00202495
1.89505e-07
0.00202476
1.82434e-07
0.00202459
1.75436e-07
0.00202442
1.6851e-07
0.00202426
1.61656e-07
0.0020241
1.54872e-07
0.00202395
1.48159e-07
0.00202381
1.41515e-07
0.00202368
1.34941e-07
0.00202355
1.28436e-07
0.00202343
1.22e-07
0.00202331
1.15631e-07
0.0020232
1.0933e-07
0.0020231
1.03096e-07
0.002023
9.69283e-08
0.00202291
9.08273e-08
0.00202283
8.47922e-08
0.00202275
7.88225e-08
0.00202267
7.29179e-08
0.00202261
6.70779e-08
0.00202255
6.13022e-08
0.00202249
5.55902e-08
0.00202244
4.99417e-08
0.0020224
4.43561e-08
0.00202236
3.88331e-08
0.00202232
3.33721e-08
0.0020223
2.79729e-08
0.00202227
2.26348e-08
0.00202226
1.73575e-08
0.00202224
1.21405e-08
0.00202224
6.98333e-09
0.00202223
1.88541e-09
0.00202224
-3.15365e-09
0.00202225
-8.13452e-09
0.00202226
-1.30577e-08
0.00202228
-1.79238e-08
0.0020223
-2.27334e-08
0.00202233
-2.74873e-08
0.00202236
-3.2186e-08
0.0020224
-3.68305e-08
0.00202244
-4.14214e-08
0.00202248
-4.59597e-08
0.00202253
-5.04461e-08
0.00202259
-5.48818e-08
0.00202265
-5.92677e-08
0.00202271
-6.3605e-08
0.00202278
-6.78948e-08
0.00202285
-7.21383e-08
0.00202293
-7.63369e-08
0.00202301
-8.04921e-08
0.00202309
-8.46054e-08
0.00202318
-8.86783e-08
0.00202327
-9.27127e-08
0.00202337
-9.67104e-08
0.00202347
-1.00673e-07
0.00202357
-1.04604e-07
0.00202368
-1.08504e-07
0.0020238
-1.12376e-07
0.00202391
-1.16223e-07
0.00202403
-1.20046e-07
0.00202416
-1.23851e-07
0.00202428
-1.27638e-07
0.00202441
-1.31412e-07
0.00202455
-1.35175e-07
0.00202469
-1.38933e-07
0.00202483
-1.42687e-07
0.00202498
-1.46443e-07
0.00202513
-1.50204e-07
0.00202528
-1.53976e-07
0.00202544
-1.57762e-07
0.0020256
-1.61568e-07
0.00202577
-1.65399e-07
0.00202594
-1.6926e-07
0.00202611
-1.73156e-07
0.00202629
-1.77095e-07
0.00202647
-1.81081e-07
0.00202665
-1.85121e-07
0.00202684
-1.89222e-07
0.00202703
-1.9339e-07
0.00202723
-1.97632e-07
0.00202743
-2.01956e-07
0.00202764
-2.06369e-07
0.00202785
-2.10879e-07
0.00202807
-2.15493e-07
0.00202829
-2.2022e-07
0.00202851
-2.25068e-07
0.00202874
-2.30047e-07
0.00202898
-2.35163e-07
0.00202922
-2.40427e-07
0.00202946
-2.45848e-07
0.00202971
-2.51435e-07
0.00202997
-2.57198e-07
0.00203023
-2.63147e-07
0.0020305
-2.69292e-07
0.00203078
-2.75645e-07
0.00203106
-2.82214e-07
0.00203135
-2.89013e-07
0.00203165
-2.96052e-07
0.00203195
-3.03343e-07
0.00203226
-3.10898e-07
0.00203258
-3.1873e-07
0.00203291
-3.26852e-07
0.00203324
-3.35278e-07
0.00203359
-3.44021e-07
0.00203394
-3.53097e-07
0.0020343
-3.62519e-07
0.00203467
-3.72306e-07
0.00203506
-3.82471e-07
0.00203545
-3.93034e-07
0.00203585
-4.0401e-07
0.00203627
-4.15421e-07
0.00203669
-4.27284e-07
0.00203713
-4.3962e-07
0.00203759
-4.52449e-07
0.00203805
-4.65794e-07
0.00203853
-4.79678e-07
0.00203903
-4.94124e-07
0.00203953
-5.09156e-07
0.00204006
-5.248e-07
0.0020406
-5.41082e-07
0.00204116
-5.58029e-07
0.00204173
-5.75668e-07
0.00204233
-5.94029e-07
0.00204294
-6.13138e-07
0.00204357
-6.33028e-07
0.00204423
-6.53727e-07
0.0020449
-6.75266e-07
0.0020456
-6.97674e-07
0.00204632
-7.20984e-07
0.00204707
-7.45223e-07
0.00204784
-7.70426e-07
0.00204863
-7.96616e-07
0.00204946
-8.23828e-07
0.00205031
-8.52084e-07
0.00205119
-8.81415e-07
0.0020521
-9.11841e-07
0.00205305
-9.4339e-07
0.00205402
-9.76076e-07
0.00205503
-1.00992e-06
0.00205608
-1.04494e-06
0.00205716
-1.08114e-06
0.00205828
-1.11853e-06
0.00205943
-1.15712e-06
0.00206063
-1.1969e-06
0.00206187
-1.23786e-06
0.00206315
-1.28e-06
0.00206447
-1.32329e-06
0.00206584
-1.36771e-06
0.00206725
-1.41323e-06
0.00206871
-1.45981e-06
0.00207022
-1.50741e-06
0.00207177
-1.55597e-06
0.00207338
-1.60544e-06
0.00207504
-1.65574e-06
0.00207674
-1.7068e-06
0.0020785
-1.75854e-06
0.00208031
-1.81086e-06
0.00208218
-1.86367e-06
0.00208409
-1.91687e-06
0.00208606
-1.97034e-06
0.00208809
-2.02397e-06
0.00209017
-2.07762e-06
0.0020923
-2.13119e-06
0.00209448
-2.18452e-06
0.00209672
-2.2375e-06
0.00209901
-2.28998e-06
0.00210135
-2.34183e-06
0.00210374
-2.3929e-06
0.00210619
-2.44307e-06
0.00210868
-2.49219e-06
0.00211122
-2.54014e-06
0.00211381
-2.58678e-06
0.00211644
-2.63199e-06
0.00211912
-2.67564e-06
0.00212183
-2.71764e-06
0.00212459
-2.75786e-06
0.00212739
-2.79622e-06
0.00213022
-2.83261e-06
0.00213309
-2.86697e-06
0.00213599
-2.89921e-06
0.00213892
-2.92927e-06
0.00214187
-2.95709e-06
0.00214486
-2.98263e-06
0.00214786
-3.00586e-06
0.00215089
-3.02674e-06
0.00215394
-3.04525e-06
0.002157
-3.06139e-06
0.00216007
-3.07516e-06
0.00216316
-3.08655e-06
0.00216626
-3.0956e-06
0.00216936
-3.10231e-06
0.00217246
-3.10671e-06
0.00217557
-3.10885e-06
0.00217868
-3.10876e-06
0.00218179
-3.10649e-06
0.00218489
-3.10208e-06
0.00218799
-3.0956e-06
0.00219107
-3.08709e-06
0.00219415
-3.07663e-06
0.00219722
-3.06428e-06
0.00220027
-3.0501e-06
0.0022033
-3.03416e-06
0.00220632
-3.01653e-06
0.00220931
-2.99729e-06
0.00221229
-2.97649e-06
0.00221525
-2.95423e-06
0.00221818
-2.93057e-06
0.00222108
-2.90557e-06
0.00222396
-2.87932e-06
0.00222681
-2.85189e-06
0.00222964
-2.82333e-06
0.00223243
-2.79373e-06
0.00223519
-2.76314e-06
0.00223793
-2.73165e-06
0.00224062
-2.69931e-06
0.00224329
-2.66618e-06
0.00224592
-2.63233e-06
0.00224852
-2.59782e-06
0.00225108
-2.5627e-06
0.00225361
-2.52704e-06
0.0022561
-2.49089e-06
0.00225856
-2.4543e-06
0.00226097
-2.41733e-06
0.00226335
-2.38002e-06
0.0022657
-2.34243e-06
0.002268
-2.30459e-06
0.00227027
-2.26657e-06
0.0022725
-2.2284e-06
0.00227469
-2.19011e-06
0.00227684
-2.15177e-06
0.00227895
-2.11339e-06
0.00228102
-2.07502e-06
0.00228306
-2.0367e-06
0.00228506
-1.99846e-06
0.00228702
-1.96034e-06
0.00228894
-1.92236e-06
0.00229083
-1.88455e-06
0.00229267
-1.84696e-06
0.00229448
-1.80959e-06
0.00229626
-1.77249e-06
0.00229799
-1.73568e-06
0.00229969
-1.69918e-06
0.00230135
-1.66302e-06
0.00230298
-1.62722e-06
0.00230457
-1.5918e-06
0.00230613
-1.55678e-06
0.00230765
-1.52219e-06
0.00230914
-1.48805e-06
0.00231059
-1.45437e-06
0.00231201
-1.42117e-06
0.0023134
-1.38848e-06
0.00231476
-1.35631e-06
0.00231608
-1.32468e-06
0.00231738
-1.29361e-06
0.00231864
-1.26312e-06
0.00231987
-1.23323e-06
0.00232108
-1.20398e-06
0.00232225
-1.17539e-06
0.0023234
-1.1475e-06
0.00232452
-1.12038e-06
0.00232561
-1.09408e-06
0.00232668
-1.06872e-06
0.00232773
-1.0444e-06
0.00232875
-1.02174e-06
0.00232975
-9.99696e-07
0.00233073
-9.85446e-07
-9.4779e-07
0.00243699
0.000170511
0.00238645
0.00010891
0.00234549
7.74051e-05
0.00231243
5.6797e-05
0.00228645
4.27926e-05
0.00226591
3.37808e-05
0.00224923
2.77035e-05
0.00223536
2.33179e-05
0.00222358
2.00606e-05
0.00221338
1.75846e-05
0.0022044
1.5645e-05
0.0021964
1.40855e-05
0.00218919
1.28066e-05
0.00218262
1.17396e-05
0.0021766
1.08362e-05
0.00217105
1.00611e-05
0.00216589
9.38897e-06
0.00216108
8.80034e-06
0.00215658
8.28049e-06
0.00215234
7.81792e-06
0.00214834
7.40355e-06
0.00214456
7.03014e-06
0.00214096
6.69181e-06
0.00213755
6.38376e-06
0.00213429
6.10203e-06
0.00213118
5.84331e-06
0.0021282
5.60483e-06
0.00212534
5.38425e-06
0.0021226
5.17957e-06
0.00211996
4.98909e-06
0.00211743
4.81132e-06
0.00211498
4.645e-06
0.00211262
4.48901e-06
0.00211034
4.34239e-06
0.00210813
4.20427e-06
0.002106
4.07391e-06
0.00210393
3.95064e-06
0.00210193
3.83387e-06
0.00209998
3.72307e-06
0.00209809
3.61776e-06
0.00209626
3.51753e-06
0.00209448
3.422e-06
0.00209275
3.33081e-06
0.00209106
3.24366e-06
0.00208942
3.16027e-06
0.00208782
3.08038e-06
0.00208626
3.00376e-06
0.00208474
2.93018e-06
0.00208326
2.85947e-06
0.00208181
2.79144e-06
0.0020804
2.72592e-06
0.00207903
2.66276e-06
0.00207768
2.60183e-06
0.00207637
2.54299e-06
0.00207508
2.48613e-06
0.00207383
2.43114e-06
0.0020726
2.37791e-06
0.0020714
2.32635e-06
0.00207023
2.27637e-06
0.00206908
2.22789e-06
0.00206795
2.18084e-06
0.00206685
2.13513e-06
0.00206578
2.09072e-06
0.00206472
2.04752e-06
0.00206369
2.00548e-06
0.00206268
1.96456e-06
0.00206169
1.92469e-06
0.00206072
1.88582e-06
0.00205977
1.84792e-06
0.00205884
1.81094e-06
0.00205793
1.77484e-06
0.00205704
1.73958e-06
0.00205616
1.70512e-06
0.0020553
1.67143e-06
0.00205446
1.63848e-06
0.00205364
1.60624e-06
0.00205283
1.57468e-06
0.00205204
1.54376e-06
0.00205126
1.51347e-06
0.0020505
1.48378e-06
0.00204975
1.45467e-06
0.00204902
1.42611e-06
0.0020483
1.39809e-06
0.0020476
1.37058e-06
0.00204691
1.34356e-06
0.00204623
1.31702e-06
0.00204557
1.29093e-06
0.00204492
1.26529e-06
0.00204429
1.24008e-06
0.00204366
1.21528e-06
0.00204305
1.19088e-06
0.00204246
1.16686e-06
0.00204187
1.14321e-06
0.0020413
1.11992e-06
0.00204073
1.09698e-06
0.00204018
1.07437e-06
0.00203964
1.05209e-06
0.00203911
1.03013e-06
0.0020386
1.00847e-06
0.00203809
9.87108e-07
0.0020376
9.66036e-07
0.00203711
9.45242e-07
0.00203664
9.24721e-07
0.00203617
9.04464e-07
0.00203572
8.84464e-07
0.00203527
8.64714e-07
0.00203484
8.45208e-07
0.00203442
8.25939e-07
0.002034
8.06903e-07
0.0020336
7.88092e-07
0.0020332
7.69502e-07
0.00203282
7.51127e-07
0.00203244
7.32964e-07
0.00203207
7.15007e-07
0.00203171
6.97253e-07
0.00203136
6.79696e-07
0.00203102
6.62335e-07
0.00203069
6.45163e-07
0.00203037
6.28179e-07
0.00203005
6.11379e-07
0.00202975
5.9476e-07
0.00202945
5.78318e-07
0.00202916
5.62052e-07
0.00202888
5.45958e-07
0.0020286
5.30034e-07
0.00202834
5.14276e-07
0.00202808
4.98684e-07
0.00202783
4.83255e-07
0.00202759
4.67986e-07
0.00202735
4.52876e-07
0.00202713
4.37923e-07
0.00202691
4.23125e-07
0.00202669
4.08481e-07
0.00202649
3.93988e-07
0.00202629
3.79646e-07
0.0020261
3.65452e-07
0.00202592
3.51406e-07
0.00202574
3.37506e-07
0.00202557
3.23752e-07
0.00202541
3.10141e-07
0.00202526
2.96674e-07
0.00202511
2.83348e-07
0.00202497
2.70163e-07
0.00202483
2.57118e-07
0.0020247
2.44212e-07
0.00202458
2.31444e-07
0.00202446
2.18813e-07
0.00202436
2.06318e-07
0.00202425
1.93959e-07
0.00202416
1.81734e-07
0.00202406
1.69643e-07
0.00202398
1.57685e-07
0.0020239
1.45859e-07
0.00202383
1.34164e-07
0.00202376
1.22599e-07
0.0020237
1.11164e-07
0.00202364
9.98572e-08
0.00202359
8.86783e-08
0.00202355
7.76263e-08
0.00202351
6.67003e-08
0.00202348
5.58994e-08
0.00202345
4.52226e-08
0.00202343
3.4669e-08
0.00202341
2.42377e-08
0.0020234
1.39277e-08
0.00202339
3.73789e-09
0.00202339
-6.3327e-09
0.00202339
-1.62852e-08
0.0020234
-2.61207e-08
0.00202341
-3.58404e-08
0.00202343
-4.54457e-08
0.00202345
-5.49378e-08
0.00202348
-6.43182e-08
0.00202351
-7.35885e-08
0.00202355
-8.27502e-08
0.00202359
-9.18051e-08
0.00202364
-1.00755e-07
0.00202369
-1.09602e-07
0.00202374
-1.18348e-07
0.0020238
-1.26995e-07
0.00202386
-1.35546e-07
0.00202393
-1.44003e-07
0.002024
-1.52369e-07
0.00202408
-1.60647e-07
0.00202416
-1.68839e-07
0.00202424
-1.7695e-07
0.00202433
-1.84982e-07
0.00202442
-1.9294e-07
0.00202452
-2.00827e-07
0.00202462
-2.08647e-07
0.00202472
-2.16406e-07
0.00202483
-2.24107e-07
0.00202494
-2.31756e-07
0.00202506
-2.39359e-07
0.00202518
-2.46921e-07
0.0020253
-2.54448e-07
0.00202543
-2.61946e-07
0.00202556
-2.69423e-07
0.00202569
-2.76886e-07
0.00202583
-2.84342e-07
0.00202597
-2.91799e-07
0.00202612
-2.99266e-07
0.00202627
-3.06752e-07
0.00202642
-3.14265e-07
0.00202657
-3.21817e-07
0.00202674
-3.29416e-07
0.0020269
-3.37074e-07
0.00202707
-3.44801e-07
0.00202724
-3.5261e-07
0.00202741
-3.60513e-07
0.00202759
-3.68521e-07
0.00202778
-3.76648e-07
0.00202796
-3.84907e-07
0.00202815
-3.93312e-07
0.00202835
-4.01877e-07
0.00202855
-4.10618e-07
0.00202875
-4.19549e-07
0.00202896
-4.28686e-07
0.00202917
-4.38045e-07
0.00202939
-4.47642e-07
0.00202961
-4.57494e-07
0.00202984
-4.67619e-07
0.00203007
-4.78035e-07
0.00203031
-4.88759e-07
0.00203055
-4.9981e-07
0.0020308
-5.11208e-07
0.00203105
-5.22972e-07
0.00203131
-5.35122e-07
0.00203158
-5.4768e-07
0.00203185
-5.60665e-07
0.00203213
-5.74101e-07
0.00203241
-5.88009e-07
0.0020327
-6.02414e-07
0.002033
-6.17339e-07
0.00203331
-6.32808e-07
0.00203362
-6.48848e-07
0.00203394
-6.65486e-07
0.00203427
-6.82749e-07
0.00203461
-7.00665e-07
0.00203496
-7.19265e-07
0.00203531
-7.38581e-07
0.00203568
-7.58643e-07
0.00203606
-7.79487e-07
0.00203644
-8.01148e-07
0.00203684
-8.23662e-07
0.00203724
-8.47068e-07
0.00203766
-8.71406e-07
0.00203809
-8.96717e-07
0.00203854
-9.23045e-07
0.00203899
-9.50435e-07
0.00203946
-9.78935e-07
0.00203995
-1.00859e-06
0.00204045
-1.03946e-06
0.00204096
-1.07158e-06
0.00204149
-1.10502e-06
0.00204203
-1.13983e-06
0.0020426
-1.17607e-06
0.00204318
-1.21379e-06
0.00204378
-1.25305e-06
0.00204439
-1.29392e-06
0.00204503
-1.33645e-06
0.00204569
-1.3807e-06
0.00204637
-1.42675e-06
0.00204708
-1.47464e-06
0.00204781
-1.52444e-06
0.00204856
-1.57621e-06
0.00204934
-1.63e-06
0.00205014
-1.68588e-06
0.00205097
-1.7439e-06
0.00205183
-1.8041e-06
0.00205272
-1.86653e-06
0.00205364
-1.93124e-06
0.0020546
-1.99826e-06
0.00205558
-2.06763e-06
0.0020566
-2.13936e-06
0.00205766
-2.21347e-06
0.00205875
-2.28998e-06
0.00205989
-2.36888e-06
0.00206106
-2.45016e-06
0.00206227
-2.53379e-06
0.00206352
-2.61975e-06
0.00206481
-2.70798e-06
0.00206615
-2.79844e-06
0.00206753
-2.89104e-06
0.00206896
-2.98569e-06
0.00207044
-3.0823e-06
0.00207197
-3.18075e-06
0.00207354
-3.2809e-06
0.00207516
-3.3826e-06
0.00207684
-3.4857e-06
0.00207857
-3.59001e-06
0.00208034
-3.69534e-06
0.00208218
-3.80148e-06
0.00208406
-3.90821e-06
0.002086
-4.0153e-06
0.00208799
-4.1225e-06
0.00209004
-4.22957e-06
0.00209213
-4.33623e-06
0.00209429
-4.44223e-06
0.00209649
-4.54728e-06
0.00209875
-4.65112e-06
0.00210106
-4.75347e-06
0.00210342
-4.85405e-06
0.00210584
-4.95258e-06
0.0021083
-5.04882e-06
0.00211081
-5.14248e-06
0.00211337
-5.23333e-06
0.00211597
-5.32111e-06
0.00211862
-5.40561e-06
0.00212131
-5.48661e-06
0.00212404
-5.5639e-06
0.00212681
-5.63731e-06
0.00212962
-5.70666e-06
0.00213246
-5.7718e-06
0.00213534
-5.83261e-06
0.00213825
-5.88897e-06
0.00214118
-5.94078e-06
0.00214414
-5.98797e-06
0.00214713
-6.03049e-06
0.00215014
-6.06828e-06
0.00215316
-6.10133e-06
0.00215621
-6.12964e-06
0.00215926
-6.15321e-06
0.00216233
-6.17207e-06
0.00216541
-6.18627e-06
0.0021685
-6.19586e-06
0.00217159
-6.20091e-06
0.00217469
-6.20149e-06
0.00217779
-6.19771e-06
0.00218088
-6.18965e-06
0.00218397
-6.17743e-06
0.00218706
-6.16116e-06
0.00219013
-6.14097e-06
0.0021932
-6.11698e-06
0.00219625
-6.08933e-06
0.0021993
-6.05816e-06
0.00220232
-6.02359e-06
0.00220533
-5.98579e-06
0.00220832
-5.94488e-06
0.00221129
-5.90102e-06
0.00221424
-5.85434e-06
0.00221717
-5.805e-06
0.00222007
-5.75313e-06
0.00222295
-5.69887e-06
0.00222579
-5.64237e-06
0.00222861
-5.58377e-06
0.00223141
-5.52319e-06
0.00223417
-5.46077e-06
0.0022369
-5.39665e-06
0.0022396
-5.33095e-06
0.00224226
-5.26379e-06
0.0022449
-5.19529e-06
0.00224749
-5.12557e-06
0.00225006
-5.05475e-06
0.00225259
-4.98294e-06
0.00225508
-4.91024e-06
0.00225754
-4.83675e-06
0.00225996
-4.76259e-06
0.00226234
-4.68784e-06
0.00226468
-4.61259e-06
0.00226699
-4.53695e-06
0.00226926
-4.46099e-06
0.0022715
-4.3848e-06
0.00227369
-4.30846e-06
0.00227585
-4.23205e-06
0.00227797
-4.15565e-06
0.00228005
-4.07932e-06
0.00228209
-4.00313e-06
0.0022841
-3.92716e-06
0.00228606
-3.85146e-06
0.00228799
-3.7761e-06
0.00228988
-3.70113e-06
0.00229174
-3.62661e-06
0.00229355
-3.55261e-06
0.00229533
-3.47916e-06
0.00229708
-3.40633e-06
0.00229878
-3.33415e-06
0.00230045
-3.26268e-06
0.00230209
-3.19196e-06
0.00230369
-3.12203e-06
0.00230525
-3.05294e-06
0.00230678
-2.98473e-06
0.00230828
-2.91745e-06
0.00230974
-2.85112e-06
0.00231117
-2.78579e-06
0.00231257
-2.7215e-06
0.00231393
-2.65829e-06
0.00231527
-2.59621e-06
0.00231657
-2.53531e-06
0.00231784
-2.47564e-06
0.00231908
-2.41727e-06
0.00232029
-2.36027e-06
0.00232148
-2.30475e-06
0.00232263
-2.25084e-06
0.00232376
-2.19874e-06
0.00232487
-2.14868e-06
0.00232595
-2.1012e-06
0.002327
-2.05651e-06
0.00232803
-2.01689e-06
-1.97678e-06
0.00247084
0.000190158
0.00243653
0.000143225
0.00240244
0.000111488
0.00237102
8.82205e-05
0.00234326
7.05533e-05
0.00231944
5.75991e-05
0.00229908
4.80645e-05
0.00228156
4.08389e-05
0.00226636
3.52574e-05
0.00225306
3.08832e-05
0.00224131
2.73932e-05
0.00223084
2.45586e-05
0.00222143
2.22206e-05
0.0022129
2.02658e-05
0.00220512
1.86106e-05
0.00219799
1.71933e-05
0.00219141
1.59676e-05
0.00218532
1.4898e-05
0.00217964
1.3957e-05
0.00217433
1.31232e-05
0.00216936
1.23795e-05
0.00216467
1.17122e-05
0.00216026
1.11103e-05
0.00215608
1.05645e-05
0.00215211
1.00675e-05
0.00214834
9.61292e-06
0.00214475
9.19561e-06
0.00214132
8.81112e-06
0.00213805
8.45569e-06
0.00213491
8.12612e-06
0.0021319
7.81964e-06
0.00212901
7.53388e-06
0.00212623
7.26676e-06
0.00212356
7.01647e-06
0.00212098
6.78144e-06
0.00211849
6.56027e-06
0.00211609
6.35173e-06
0.00211377
6.15474e-06
0.00211153
5.96832e-06
0.00210935
5.79162e-06
0.00210725
5.62386e-06
0.0021052
5.46435e-06
0.00210322
5.31246e-06
0.0021013
5.16763e-06
0.00209943
5.02936e-06
0.00209761
4.89717e-06
0.00209584
4.77066e-06
0.00209412
4.64943e-06
0.00209245
4.53314e-06
0.00209082
4.42147e-06
0.00208923
4.31413e-06
0.00208768
4.21085e-06
0.00208617
4.11138e-06
0.0020847
4.0155e-06
0.00208326
3.923e-06
0.00208186
3.83367e-06
0.00208049
3.74735e-06
0.00207915
3.66387e-06
0.00207785
3.58306e-06
0.00207657
3.5048e-06
0.00207532
3.42894e-06
0.0020741
3.35536e-06
0.00207291
3.28395e-06
0.00207174
3.21459e-06
0.0020706
3.14719e-06
0.00206948
3.08165e-06
0.00206839
3.01788e-06
0.00206732
2.95579e-06
0.00206627
2.89532e-06
0.00206524
2.83638e-06
0.00206424
2.7789e-06
0.00206326
2.72282e-06
0.00206229
2.66809e-06
0.00206135
2.61463e-06
0.00206043
2.56239e-06
0.00205952
2.51133e-06
0.00205863
2.46139e-06
0.00205777
2.41253e-06
0.00205691
2.3647e-06
0.00205608
2.31786e-06
0.00205526
2.27198e-06
0.00205446
2.22701e-06
0.00205368
2.18291e-06
0.00205291
2.13966e-06
0.00205215
2.09723e-06
0.00205141
2.05557e-06
0.00205069
2.01467e-06
0.00204998
1.97449e-06
0.00204929
1.93502e-06
0.00204861
1.89621e-06
0.00204794
1.85806e-06
0.00204728
1.82054e-06
0.00204664
1.78362e-06
0.00204602
1.74729e-06
0.0020454
1.71152e-06
0.0020448
1.6763e-06
0.00204421
1.64161e-06
0.00204363
1.60744e-06
0.00204307
1.57376e-06
0.00204251
1.54056e-06
0.00204197
1.50783e-06
0.00204144
1.47555e-06
0.00204092
1.44372e-06
0.00204041
1.4123e-06
0.00203992
1.38131e-06
0.00203943
1.35072e-06
0.00203896
1.32052e-06
0.00203849
1.2907e-06
0.00203804
1.26125e-06
0.00203759
1.23217e-06
0.00203716
1.20344e-06
0.00203673
1.17506e-06
0.00203632
1.14702e-06
0.00203592
1.1193e-06
0.00203552
1.09191e-06
0.00203514
1.06483e-06
0.00203476
1.03807e-06
0.00203439
1.01161e-06
0.00203404
9.85442e-07
0.00203369
9.5957e-07
0.00203335
9.33984e-07
0.00203302
9.08681e-07
0.0020327
8.83655e-07
0.00203238
8.58901e-07
0.00203208
8.34416e-07
0.00203178
8.10195e-07
0.0020315
7.86234e-07
0.00203122
7.62529e-07
0.00203094
7.39078e-07
0.00203068
7.15876e-07
0.00203043
6.9292e-07
0.00203018
6.70208e-07
0.00202994
6.47737e-07
0.00202971
6.25503e-07
0.00202948
6.03505e-07
0.00202927
5.8174e-07
0.00202906
5.60205e-07
0.00202886
5.38899e-07
0.00202866
5.17819e-07
0.00202848
4.96964e-07
0.0020283
4.76332e-07
0.00202812
4.5592e-07
0.00202796
4.35728e-07
0.0020278
4.15753e-07
0.00202765
3.95994e-07
0.0020275
3.7645e-07
0.00202736
3.57118e-07
0.00202723
3.37999e-07
0.00202711
3.19089e-07
0.00202699
3.00389e-07
0.00202688
2.81895e-07
0.00202677
2.63608e-07
0.00202667
2.45525e-07
0.00202658
2.27646e-07
0.00202649
2.09968e-07
0.00202641
1.92491e-07
0.00202633
1.75214e-07
0.00202626
1.58134e-07
0.0020262
1.4125e-07
0.00202614
1.24562e-07
0.00202609
1.08067e-07
0.00202604
9.17649e-08
0.002026
7.56532e-08
0.00202597
5.97309e-08
0.00202594
4.39963e-08
0.00202591
2.84479e-08
0.00202589
1.3084e-08
0.00202588
-2.09683e-09
0.00202587
-1.70964e-08
0.00202586
-3.19165e-08
0.00202587
-4.65589e-08
0.00202587
-6.10256e-08
0.00202588
-7.53188e-08
0.0020259
-8.94407e-08
0.00202592
-1.03394e-07
0.00202594
-1.1718e-07
0.00202597
-1.30803e-07
0.00202601
-1.44264e-07
0.00202605
-1.57567e-07
0.00202609
-1.70716e-07
0.00202614
-1.83713e-07
0.00202619
-1.96562e-07
0.00202625
-2.09268e-07
0.00202631
-2.21833e-07
0.00202638
-2.34263e-07
0.00202644
-2.46562e-07
0.00202652
-2.58735e-07
0.0020266
-2.70788e-07
0.00202668
-2.82725e-07
0.00202676
-2.94554e-07
0.00202685
-3.06279e-07
0.00202695
-3.17909e-07
0.00202705
-3.29451e-07
0.00202715
-3.40911e-07
0.00202725
-3.52299e-07
0.00202736
-3.63622e-07
0.00202747
-3.7489e-07
0.00202759
-3.86113e-07
0.00202771
-3.973e-07
0.00202783
-4.08464e-07
0.00202796
-4.19614e-07
0.00202809
-4.30763e-07
0.00202823
-4.41923e-07
0.00202837
-4.53109e-07
0.00202851
-4.64333e-07
0.00202866
-4.7561e-07
0.00202881
-4.86956e-07
0.00202896
-4.98386e-07
0.00202912
-5.09917e-07
0.00202928
-5.21567e-07
0.00202944
-5.33352e-07
0.00202961
-5.45291e-07
0.00202978
-5.57404e-07
0.00202996
-5.69711e-07
0.00203014
-5.82232e-07
0.00203032
-5.94988e-07
0.00203051
-6.08e-07
0.00203071
-6.21292e-07
0.0020309
-6.34887e-07
0.0020311
-6.48807e-07
0.00203131
-6.63078e-07
0.00203152
-6.77724e-07
0.00203173
-6.92771e-07
0.00203195
-7.08244e-07
0.00203218
-7.24171e-07
0.00203241
-7.40579e-07
0.00203264
-7.57496e-07
0.00203288
-7.74952e-07
0.00203313
-7.92974e-07
0.00203338
-8.11595e-07
0.00203363
-8.30845e-07
0.0020339
-8.50757e-07
0.00203416
-8.71363e-07
0.00203444
-8.92698e-07
0.00203472
-9.14797e-07
0.00203501
-9.37697e-07
0.00203531
-9.61436e-07
0.00203561
-9.86052e-07
0.00203592
-1.01159e-06
0.00203624
-1.03808e-06
0.00203657
-1.06559e-06
0.0020369
-1.09414e-06
0.00203725
-1.12379e-06
0.0020376
-1.1546e-06
0.00203796
-1.18661e-06
0.00203833
-1.21987e-06
0.00203872
-1.25445e-06
0.00203911
-1.2904e-06
0.00203952
-1.32779e-06
0.00203993
-1.36668e-06
0.00204036
-1.40714e-06
0.0020408
-1.44924e-06
0.00204125
-1.49306e-06
0.00204172
-1.53866e-06
0.0020422
-1.58613e-06
0.0020427
-1.63555e-06
0.00204321
-1.687e-06
0.00204373
-1.74057e-06
0.00204428
-1.79634e-06
0.00204484
-1.85441e-06
0.00204542
-1.91487e-06
0.00204601
-1.97781e-06
0.00204663
-2.04332e-06
0.00204727
-2.1115e-06
0.00204792
-2.18243e-06
0.0020486
-2.25623e-06
0.00204931
-2.33296e-06
0.00205003
-2.41274e-06
0.00205079
-2.49563e-06
0.00205156
-2.58173e-06
0.00205237
-2.67112e-06
0.0020532
-2.76386e-06
0.00205406
-2.86003e-06
0.00205495
-2.95968e-06
0.00205588
-3.06286e-06
0.00205683
-3.16961e-06
0.00205782
-3.27997e-06
0.00205885
-3.39394e-06
0.00205991
-3.51153e-06
0.00206101
-3.63273e-06
0.00206215
-3.75751e-06
0.00206332
-3.88582e-06
0.00206454
-4.0176e-06
0.00206581
-4.15275e-06
0.00206711
-4.29118e-06
0.00206846
-4.43276e-06
0.00206986
-4.57733e-06
0.0020713
-4.72473e-06
0.00207279
-4.87475e-06
0.00207434
-5.02717e-06
0.00207593
-5.18176e-06
0.00207757
-5.33824e-06
0.00207927
-5.49632e-06
0.00208101
-5.65569e-06
0.00208281
-5.81603e-06
0.00208467
-5.97697e-06
0.00208658
-6.13816e-06
0.00208854
-6.29922e-06
0.00209056
-6.45973e-06
0.00209263
-6.61931e-06
0.00209476
-6.77754e-06
0.00209694
-6.934e-06
0.00209917
-7.08827e-06
0.00210146
-7.23994e-06
0.0021038
-7.38859e-06
0.00210619
-7.53381e-06
0.00210863
-7.67521e-06
0.00211113
-7.81241e-06
0.00211367
-7.94504e-06
0.00211625
-8.07275e-06
0.00211888
-8.1952e-06
0.00212156
-8.31211e-06
0.00212428
-8.42317e-06
0.00212703
-8.52815e-06
0.00212983
-8.6268e-06
0.00213266
-8.71892e-06
0.00213552
-8.80435e-06
0.00213842
-8.88293e-06
0.00214134
-8.95455e-06
0.00214429
-9.01913e-06
0.00214727
-9.07659e-06
0.00215027
-9.12691e-06
0.00215328
-9.17008e-06
0.00215632
-9.20611e-06
0.00215937
-9.23505e-06
0.00216243
-9.25697e-06
0.0021655
-9.27194e-06
0.00216858
-9.28006e-06
0.00217166
-9.28148e-06
0.00217475
-9.27631e-06
0.00217784
-9.26471e-06
0.00218092
-9.24685e-06
0.00218401
-9.2229e-06
0.00218708
-9.19306e-06
0.00219015
-9.15751e-06
0.00219321
-9.11645e-06
0.00219625
-9.07011e-06
0.00219929
-9.01867e-06
0.00220231
-8.96237e-06
0.00220531
-8.90142e-06
0.00220829
-8.83602e-06
0.00221125
-8.76642e-06
0.00221419
-8.69281e-06
0.00221711
-8.61541e-06
0.00222
-8.53444e-06
0.00222286
-8.45011e-06
0.0022257
-8.36262e-06
0.00222852
-8.27218e-06
0.0022313
-8.17899e-06
0.00223405
-8.08323e-06
0.00223677
-7.98512e-06
0.00223946
-7.88482e-06
0.00224212
-7.78252e-06
0.00224474
-7.67839e-06
0.00224733
-7.57261e-06
0.00224989
-7.46534e-06
0.00225241
-7.35674e-06
0.00225489
-7.24696e-06
0.00225734
-7.13616e-06
0.00225975
-7.02448e-06
0.00226212
-6.91205e-06
0.00226446
-6.79903e-06
0.00226676
-6.68552e-06
0.00226903
-6.57166e-06
0.00227125
-6.45758e-06
0.00227344
-6.34337e-06
0.00227559
-6.22917e-06
0.0022777
-6.11507e-06
0.00227977
-6.00117e-06
0.00228181
-5.88758e-06
0.00228381
-5.77439e-06
0.00228577
-5.6617e-06
0.00228769
-5.54958e-06
0.00228958
-5.43814e-06
0.00229142
-5.32744e-06
0.00229324
-5.21757e-06
0.00229501
-5.1086e-06
0.00229675
-5.00061e-06
0.00229845
-4.89366e-06
0.00230012
-4.78783e-06
0.00230175
-4.68318e-06
0.00230334
-4.57978e-06
0.0023049
-4.47769e-06
0.00230643
-4.37698e-06
0.00230792
-4.2777e-06
0.00230938
-4.17993e-06
0.0023108
-4.08372e-06
0.00231219
-3.98915e-06
0.00231356
-3.89629e-06
0.00231488
-3.80523e-06
0.00231618
-3.71605e-06
0.00231745
-3.62888e-06
0.00231869
-3.54385e-06
0.0023199
-3.46114e-06
0.00232108
-3.38098e-06
0.00232224
-3.3037e-06
0.00232337
-3.22977e-06
0.00232447
-3.15978e-06
0.00232555
-3.09461e-06
-3.03249e-06
0.00248171
0.000198931
0.00246142
0.000163517
0.00243772
0.000135193
0.00241325
0.000112688
0.00238934
9.44634e-05
0.00236699
7.99441e-05
0.00234659
6.84621e-05
0.00232814
5.92889e-05
0.00231152
5.18851e-05
0.00229654
4.58625e-05
0.00228301
4.09161e-05
0.00227076
3.68093e-05
0.00225962
3.3364e-05
0.00224944
3.04454e-05
0.0022401
2.79499e-05
0.0022315
2.57975e-05
0.00222354
2.39259e-05
0.00221615
2.22864e-05
0.00220926
2.08404e-05
0.00220283
1.95568e-05
0.0021968
1.8411e-05
0.00219113
1.73825e-05
0.00218578
1.64547e-05
0.00218073
1.56141e-05
0.00217595
1.48492e-05
0.00217141
1.41503e-05
0.0021671
1.35095e-05
0.00216299
1.292e-05
0.00215907
1.23758e-05
0.00215533
1.18721e-05
0.00215174
1.14045e-05
0.0021483
1.09692e-05
0.00214501
1.05631e-05
0.00214184
1.01833e-05
0.00213879
9.82724e-06
0.00213586
9.49284e-06
0.00213304
9.17813e-06
0.00213031
8.8814e-06
0.00212768
8.60112e-06
0.00212513
8.33594e-06
0.00212267
8.08464e-06
0.00212029
7.84613e-06
0.00211798
7.61943e-06
0.00211574
7.40366e-06
0.00211358
7.19801e-06
0.00211147
7.00175e-06
0.00210943