/*--------------------------------*- C++ -*----------------------------------*\
| =========                 |                                                 |
| \\      /  F ield         | OpenFOAM: The Open Source CFD Toolbox           |
|  \\    /   O peration     | Version:  2506                                  |
|   \\  /    A nd           | Website:  www.openfoam.com                      |
|    \\/     M anipulation  |                                                 |
\*---------------------------------------------------------------------------*/
FoamFile
{
    version     2.0;
    format      ascii;
    arch        "LSB;label=32;scalar=64";
    class       volVectorField;
    location    "300";
    object      U;
}
// * * * * * * * * * * * * * * * * * * * * * * * * * * * * * * * * * * * * * //

dimensions      [0 1 -1 0 0 0 0];

internalField   nonuniform List<vector> 
131949
(
(9.79004 0.50869 0)
(9.35424 0.191718 0)
(9.14346 0.0846564 0)
(9.05443 0.0439519 0)
(8.98407 0.0273095 0)
(8.92303 0.0209552 0)
(8.87477 0.0179515 0)
(8.8349 0.0158943 0)
(8.79994 0.0143102 0)
(8.7688 0.0130405 0)
(8.74085 0.0119754 0)
(8.71548 0.0110622 0)
(8.69223 0.0102736 0)
(8.67076 0.00958696 0)
(8.65083 0.00898398 0)
(8.63223 0.00845048 0)
(8.61479 0.00797537 0)
(8.59837 0.00754968 0)
(8.58286 0.0071661 0)
(8.56818 0.00681867 0)
(8.55422 0.00650249 0)
(8.54094 0.00621349 0)
(8.52826 0.00594826 0)
(8.51614 0.00570394 0)
(8.50452 0.0054781 0)
(8.49338 0.00526867 0)
(8.48268 0.00507388 0)
(8.47237 0.00489221 0)
(8.46245 0.00472233 0)
(8.45287 0.00456308 0)
(8.44362 0.00441348 0)
(8.43468 0.00427262 0)
(8.42603 0.00413973 0)
(8.41766 0.00401413 0)
(8.40954 0.0038952 0)
(8.40166 0.00378239 0)
(8.39402 0.00367522 0)
(8.3866 0.00357325 0)
(8.37938 0.0034761 0)
(8.37236 0.00338339 0)
(8.36553 0.00329482 0)
(8.35889 0.0032101 0)
(8.35241 0.00312895 0)
(8.3461 0.00305114 0)
(8.33995 0.00297645 0)
(8.33395 0.00290469 0)
(8.3281 0.00283566 0)
(8.32239 0.0027692 0)
(8.31681 0.00270515 0)
(8.31136 0.00264337 0)
(8.30604 0.00258372 0)
(8.30084 0.0025261 0)
(8.29575 0.00247037 0)
(8.29078 0.00241645 0)
(8.28592 0.00236423 0)
(8.28116 0.00231362 0)
(8.27651 0.00226453 0)
(8.27195 0.0022169 0)
(8.26749 0.00217064 0)
(8.26313 0.00212569 0)
(8.25885 0.00208198 0)
(8.25467 0.00203946 0)
(8.25057 0.00199806 0)
(8.24655 0.00195774 0)
(8.24262 0.00191844 0)
(8.23876 0.00188013 0)
(8.23498 0.00184274 0)
(8.23128 0.00180626 0)
(8.22765 0.00177062 0)
(8.2241 0.00173581 0)
(8.22061 0.00170177 0)
(8.21719 0.00166849 0)
(8.21384 0.00163593 0)
(8.21055 0.00160405 0)
(8.20733 0.00157284 0)
(8.20417 0.00154226 0)
(8.20108 0.0015123 0)
(8.19804 0.00148291 0)
(8.19506 0.0014541 0)
(8.19214 0.00142582 0)
(8.18928 0.00139807 0)
(8.18648 0.00137082 0)
(8.18372 0.00134405 0)
(8.18103 0.00131774 0)
(8.17838 0.00129189 0)
(8.17579 0.00126647 0)
(8.17325 0.00124147 0)
(8.17076 0.00121687 0)
(8.16831 0.00119266 0)
(8.16592 0.00116882 0)
(8.16358 0.00114535 0)
(8.16128 0.00112223 0)
(8.15903 0.00109945 0)
(8.15682 0.001077 0)
(8.15466 0.00105487 0)
(8.15254 0.00103305 0)
(8.15047 0.00101153 0)
(8.14844 0.000990302 0)
(8.14645 0.000969355 0)
(8.14451 0.000948683 0)
(8.14261 0.000928279 0)
(8.14074 0.000908134 0)
(8.13892 0.000888241 0)
(8.13714 0.000868595 0)
(8.1354 0.000849187 0)
(8.1337 0.000830014 0)
(8.13203 0.000811068 0)
(8.1304 0.000792345 0)
(8.12881 0.000773838 0)
(8.12726 0.000755543 0)
(8.12575 0.000737456 0)
(8.12427 0.000719572 0)
(8.12282 0.000701887 0)
(8.12142 0.000684396 0)
(8.12004 0.000667096 0)
(8.11871 0.000649984 0)
(8.1174 0.000633056 0)
(8.11613 0.000616309 0)
(8.1149 0.000599739 0)
(8.11369 0.000583344 0)
(8.11252 0.000567121 0)
(8.11139 0.000551067 0)
(8.11028 0.000535181 0)
(8.10921 0.000519459 0)
(8.10817 0.000503898 0)
(8.10715 0.000488499 0)
(8.10617 0.000473257 0)
(8.10523 0.000458171 0)
(8.10431 0.000443239 0)
(8.10342 0.00042846 0)
(8.10256 0.000413831 0)
(8.10173 0.000399352 0)
(8.10093 0.000385021 0)
(8.10015 0.000370836 0)
(8.09941 0.000356796 0)
(8.09869 0.0003429 0)
(8.09801 0.000329146 0)
(8.09735 0.000315534 0)
(8.09671 0.000302062 0)
(8.09611 0.00028873 0)
(8.09553 0.000275536 0)
(8.09497 0.00026248 0)
(8.09445 0.000249559 0)
(8.09395 0.000236775 0)
(8.09347 0.000224125 0)
(8.09302 0.000211609 0)
(8.09259 0.000199226 0)
(8.09219 0.000186975 0)
(8.09182 0.000174855 0)
(8.09147 0.000162865 0)
(8.09114 0.000151005 0)
(8.09084 0.000139274 0)
(8.09056 0.000127671 0)
(8.0903 0.000116195 0)
(8.09007 0.000104845 0)
(8.08985 9.36201e-05 0)
(8.08967 8.25198e-05 0)
(8.0895 7.15434e-05 0)
(8.08935 6.06895e-05 0)
(8.08923 4.99577e-05 0)
(8.08913 3.93465e-05 0)
(8.08905 2.88556e-05 0)
(8.08899 1.84834e-05 0)
(8.08895 8.22951e-06 0)
(8.08894 -1.90763e-06 0)
(8.08894 -1.19286e-05 0)
(8.08896 -2.18351e-05 0)
(8.089 -3.16279e-05 0)
(8.08906 -4.13085e-05 0)
(8.08915 -5.0878e-05 0)
(8.08925 -6.03381e-05 0)
(8.08936 -6.969e-05 0)
(8.0895 -7.89355e-05 0)
(8.08966 -8.80761e-05 0)
(8.08983 -9.71138e-05 0)
(8.09003 -0.00010605 0)
(8.09024 -0.000114888 0)
(8.09047 -0.000123629 0)
(8.09071 -0.000132275 0)
(8.09097 -0.000140829 0)
(8.09125 -0.000149294 0)
(8.09155 -0.000157672 0)
(8.09186 -0.000165967 0)
(8.09219 -0.000174182 0)
(8.09254 -0.00018232 0)
(8.0929 -0.000190385 0)
(8.09328 -0.000198381 0)
(8.09368 -0.000206312 0)
(8.09409 -0.000214183 0)
(8.09451 -0.000221997 0)
(8.09495 -0.000229762 0)
(8.09541 -0.000237481 0)
(8.09588 -0.00024516 0)
(8.09637 -0.000252807 0)
(8.09687 -0.000260426 0)
(8.09739 -0.000268025 0)
(8.09793 -0.000275612 0)
(8.09847 -0.000283193 0)
(8.09904 -0.000290777 0)
(8.09961 -0.000298372 6.05805e-105)
(8.10021 -0.000305987 -6.05822e-105)
(8.10082 -0.000313633 0)
(8.10144 -0.000321317 0)
(8.10208 -0.000329051 0)
(8.10273 -0.000336845 0)
(8.1034 -0.000344712 0)
(8.10408 -0.000352661 0)
(8.10478 -0.000360707 0)
(8.1055 -0.00036886 0)
(8.10623 -0.000377135 0)
(8.10698 -0.000385544 0)
(8.10775 -0.000394103 0)
(8.10853 -0.000402826 0)
(8.10933 -0.000411727 0)
(8.11014 -0.000420821 0)
(8.11098 -0.000430126 0)
(8.11183 -0.000439657 0)
(8.1127 -0.000449432 0)
(8.11359 -0.000459466 0)
(8.1145 -0.00046978 0)
(8.11543 -0.000480389 0)
(8.11638 -0.000491313 0)
(8.11735 -0.000502572 0)
(8.11835 -0.000514185 0)
(8.11936 -0.000526171 0)
(8.1204 -0.000538553 0)
(8.12147 -0.00055135 0)
(8.12256 -0.000564586 0)
(8.12367 -0.000578282 0)
(8.12482 -0.000592462 0)
(8.12598 -0.00060715 0)
(8.12718 -0.00062237 0)
(8.12841 -0.000638148 0)
(8.12967 -0.00065451 0)
(8.13096 -0.000671484 0)
(8.13228 -0.000689099 0)
(8.13364 -0.000707382 0)
(8.13504 -0.000726366 0)
(8.13647 -0.000746081 0)
(8.13793 -0.000766563 0)
(8.13944 -0.000787843 0)
(8.14099 -0.00080996 0)
(8.14259 -0.000832948 0)
(8.14422 -0.00085685 0)
(8.14591 -0.000881703 0)
(8.14764 -0.000907552 0)
(8.14943 -0.000934438 0)
(8.15126 -0.00096241 0)
(8.15315 -0.000991511 0)
(8.1551 -0.00102179 0)
(8.1571 -0.00105331 0)
(8.15917 -0.0010861 0)
(8.1613 -0.00112023 0)
(8.1635 -0.00115576 0)
(8.16576 -0.00119273 0)
(8.1681 -0.00123121 0)
(8.17051 -0.00127125 0)
(8.17301 -0.00131292 0)
(8.17558 -0.00135627 0)
(8.17823 -0.00140136 0)
(8.18098 -0.00144826 0)
(8.18381 -0.00149703 0)
(8.18675 -0.00154771 0)
(8.18977 -0.00160039 0)
(8.19291 -0.00165509 0)
(8.19615 -0.0017119 0)
(8.1995 -0.00177084 0)
(8.20296 -0.00183197 0)
(8.20655 -0.00189534 0)
(8.21025 -0.00196099 0)
(8.21409 -0.00202894 0)
(8.21806 -0.00209923 0)
(8.22217 -0.00217188 0)
(8.22642 -0.0022469 0)
(8.23082 -0.00232429 0)
(8.23536 -0.00240406 0)
(8.24007 -0.00248617 0)
(8.24494 -0.00257062 0)
(8.24997 -0.00265736 0)
(8.25518 -0.00274635 0)
(8.26056 -0.00283751 0)
(8.26612 -0.00293078 0)
(8.27186 -0.00302605 0)
(8.27779 -0.00312324 0)
(8.28392 -0.00322221 0)
(8.29024 -0.00332283 0)
(8.29676 -0.00342495 0)
(8.30348 -0.00352841 0)
(8.31041 -0.00363302 0)
(8.31755 -0.0037386 0)
(8.3249 -0.00384492 0)
(8.33246 -0.00395178 0)
(8.34023 -0.00405893 0)
(8.34822 -0.00416614 0)
(8.35642 -0.00427314 0)
(8.36484 -0.00437969 0)
(8.37347 -0.00448552 0)
(8.38232 -0.00459035 0)
(8.39137 -0.0046939 0)
(8.40064 -0.00479592 0)
(8.41011 -0.00489611 0)
(8.41978 -0.00499422 0)
(8.42965 -0.00508997 0)
(8.43972 -0.00518312 0)
(8.44998 -0.0052734 0)
(8.46042 -0.00536059 0)
(8.47104 -0.00544446 0)
(8.48183 -0.00552479 0)
(8.49278 -0.00560138 0)
(8.50389 -0.00567406 0)
(8.51516 -0.00574266 0)
(8.52656 -0.00580703 0)
(8.5381 -0.00586704 0)
(8.54976 -0.00592258 0)
(8.56154 -0.00597355 0)
(8.57342 -0.00601989 0)
(8.5854 -0.00606154 0)
(8.59747 -0.00609846 0)
(8.60962 -0.00613063 0)
(8.62184 -0.00615804 0)
(8.63412 -0.00618071 0)
(8.64645 -0.00619867 0)
(8.65882 -0.00621196 0)
(8.67122 -0.00622064 0)
(8.68364 -0.00622477 0)
(8.69608 -0.00622444 0)
(8.70852 -0.00621974 0)
(8.72096 -0.00621077 0)
(8.73338 -0.00619763 0)
(8.74578 -0.00618045 0)
(8.75815 -0.00615935 0)
(8.77048 -0.00613446 0)
(8.78277 -0.00610591 0)
(8.795 -0.00607383 0)
(8.80717 -0.00603838 0)
(8.81928 -0.00599968 0)
(8.83131 -0.0059579 0)
(8.84326 -0.00591315 0)
(8.85512 -0.00586561 0)
(8.86689 -0.0058154 0)
(8.87857 -0.00576268 0)
(8.89014 -0.00570757 0)
(8.9016 -0.00565024 0)
(8.91296 -0.0055908 0)
(8.92419 -0.00552941 0)
(8.93531 -0.00546618 0)
(8.9463 -0.00540127 0)
(8.95716 -0.00533478 0)
(8.96789 -0.00526685 0)
(8.97849 -0.0051976 0)
(8.98895 -0.00512715 0)
(8.99927 -0.0050556 0)
(9.00945 -0.00498309 0)
(9.01948 -0.0049097 0)
(9.02937 -0.00483554 0)
(9.03912 -0.00476073 0)
(9.04871 -0.00468534 0)
(9.05815 -0.00460949 0)
(9.06745 -0.00453326 0)
(9.07659 -0.00445674 0)
(9.08558 -0.00438 0)
(9.09441 -0.00430315 0)
(9.10309 -0.00422624 0)
(9.11162 -0.00414937 0)
(9.12 -0.0040726 0)
(9.12822 -0.00399599 0)
(9.13629 -0.00391963 0)
(9.1442 -0.00384357 0)
(9.15197 -0.00376787 0)
(9.15958 -0.00369259 0)
(9.16704 -0.0036178 0)
(9.17435 -0.00354354 0)
(9.18151 -0.00346986 0)
(9.18853 -0.00339682 0)
(9.1954 -0.00332446 0)
(9.20212 -0.00325284 0)
(9.2087 -0.00318199 0)
(9.21513 -0.00311195 0)
(9.22143 -0.00304277 0)
(9.22758 -0.00297449 0)
(9.2336 -0.00290714 0)
(9.23949 -0.00284076 0)
(9.24524 -0.00277539 0)
(9.25085 -0.00271106 0)
(9.25634 -0.0026478 0)
(9.2617 -0.00258565 0)
(9.26694 -0.00252465 0)
(9.27205 -0.00246483 0)
(9.27704 -0.00240624 0)
(9.28191 -0.00234892 0)
(9.28667 -0.00229294 0)
(9.29131 -0.00223839 0)
(9.29585 -0.00218535 0)
(9.30028 -0.00213399 0)
(9.3046 -0.00208452 0)
(9.30883 -0.00203713 0)
(9.31294 -0.00199311 0)
(9.31704 -0.00195043 0)
(9.32075 -0.00192325 0)
(9.32592 -0.00185116 0)
(9.89636 0.592427 0)
(9.64868 0.329304 0)
(9.44654 0.219664 0)
(9.30553 0.153633 0)
(9.19288 0.111404 0)
(9.10033 0.0866395 0)
(9.02654 0.071089 0)
(8.96659 0.0601863 0)
(8.91603 0.0522094 0)
(8.87247 0.0461962 0)
(8.83441 0.04148 0)
(8.80068 0.037662 0)
(8.77042 0.0345045 0)
(8.74299 0.0318472 0)
(8.71792 0.0295766 0)
(8.69486 0.027612 0)
(8.6735 0.0258941 0)
(8.65361 0.0243783 0)
(8.63502 0.0230302 0)
(8.61757 0.0218227 0)
(8.60113 0.0207344 0)
(8.58558 0.0197481 0)
(8.57085 0.0188498 0)
(8.55685 0.0180279 0)
(8.54352 0.0172728 0)
(8.53079 0.0165763 0)
(8.51862 0.0159318 0)
(8.50696 0.0153334 0)
(8.49577 0.0147762 0)
(8.48502 0.0142559 0)
(8.47468 0.0137688 0)
(8.46472 0.0133117 0)
(8.45511 0.0128818 0)
(8.44583 0.0124766 0)
(8.43686 0.012094 0)
(8.42819 0.011732 0)
(8.41979 0.0113889 0)
(8.41165 0.0110632 0)
(8.40375 0.0107535 0)
(8.39609 0.0104586 0)
(8.38865 0.0101773 0)
(8.38143 0.00990875 0)
(8.3744 0.00965197 0)
(8.36756 0.00940616 0)
(8.36091 0.00917056 0)
(8.35443 0.00894451 0)
(8.34811 0.00872738 0)
(8.34196 0.0085186 0)
(8.33596 0.00831766 0)
(8.33011 0.00812408 0)
(8.3244 0.00793742 0)
(8.31882 0.00775727 0)
(8.31338 0.00758325 0)
(8.30806 0.00741504 0)
(8.30287 0.00725229 0)
(8.29779 0.00709472 0)
(8.29283 0.00694204 0)
(8.28797 0.00679401 0)
(8.28323 0.00665038 0)
(8.27858 0.00651092 0)
(8.27404 0.00637544 0)
(8.26959 0.00624373 0)
(8.26524 0.0061156 0)
(8.26098 0.0059909 0)
(8.25681 0.00586946 0)
(8.25273 0.00575113 0)
(8.24873 0.00563576 0)
(8.24481 0.00552322 0)
(8.24097 0.00541339 0)
(8.23721 0.00530615 0)
(8.23352 0.00520138 0)
(8.22991 0.00509898 0)
(8.22637 0.00499885 0)
(8.22291 0.0049009 0)
(8.21951 0.00480503 0)
(8.21618 0.00471116 0)
(8.21291 0.00461921 0)
(8.20971 0.0045291 0)
(8.20657 0.00444076 0)
(8.2035 0.00435413 0)
(8.20048 0.00426913 0)
(8.19753 0.00418571 0)
(8.19463 0.00410381 0)
(8.19179 0.00402336 0)
(8.18901 0.00394432 0)
(8.18628 0.00386664 0)
(8.1836 0.00379026 0)
(8.18098 0.00371514 0)
(8.17841 0.00364124 0)
(8.1759 0.00356851 0)
(8.17343 0.00349692 0)
(8.17101 0.00342643 0)
(8.16864 0.003357 0)
(8.16632 0.0032886 0)
(8.16405 0.00322119 0)
(8.16182 0.00315474 0)
(8.15964 0.00308923 0)
(8.1575 0.00302462 0)
(8.15541 0.00296089 0)
(8.15337 0.00289802 0)
(8.15136 0.00283597 0)
(8.1494 0.00277472 0)
(8.14748 0.00271426 0)
(8.14561 0.00265456 0)
(8.14377 0.00259559 0)
(8.14198 0.00253735 0)
(8.14022 0.00247982 0)
(8.1385 0.00242296 0)
(8.13683 0.00236678 0)
(8.13519 0.00231125 0)
(8.13359 0.00225636 0)
(8.13203 0.00220209 0)
(8.1305 0.00214844 0)
(8.12901 0.00209538 0)
(8.12756 0.00204291 0)
(8.12614 0.00199101 0)
(8.12476 0.00193968 0)
(8.12342 0.0018889 0)
(8.12211 0.00183867 0)
(8.12083 0.00178897 0)
(8.11959 0.0017398 0)
(8.11838 0.00169115 0)
(8.1172 0.001643 0)
(8.11606 0.00159536 0)
(8.11495 0.00154822 0)
(8.11387 0.00150156 0)
(8.11282 0.00145538 0)
(8.11181 0.00140968 0)
(8.11082 0.00136445 0)
(8.10987 0.00131968 0)
(8.10895 0.00127538 0)
(8.10806 0.00123152 0)
(8.10719 0.00118812 0)
(8.10636 0.00114516 0)
(8.10556 0.00110265 0)
(8.10478 0.00106057 0)
(8.10404 0.00101892 0)
(8.10332 0.000977702 0)
(8.10263 0.000936912 0)
(8.10197 0.000896544 0)
(8.10133 0.000856597 0)
(8.10073 0.000817067 0)
(8.10015 0.000777951 0)
(8.09959 0.000739247 0)
(8.09906 0.000700952 0)
(8.09856 0.000663064 0)
(8.09809 0.000625579 0)
(8.09764 0.000588495 0)
(8.09721 0.00055181 0)
(8.09681 0.000515522 0)
(8.09643 0.000479627 0)
(8.09608 0.000444124 0)
(8.09576 0.00040901 0)
(8.09545 0.000374282 0)
(8.09517 0.000339938 0)
(8.09492 0.000305976 0)
(8.09468 0.000272393 0)
(8.09447 0.000239187 0)
(8.09428 0.000206354 0)
(8.09412 0.000173893 0)
(8.09397 0.0001418 0)
(8.09385 0.000110073 0)
(8.09375 7.87094e-05 0)
(8.09367 4.77059e-05 0)
(8.09361 1.70597e-05 0)
(8.09357 -1.32323e-05 0)
(8.09355 -4.31733e-05 0)
(8.09356 -7.27665e-05 0)
(8.09358 -0.000102016 0)
(8.09362 -0.000130924 0)
(8.09368 -0.000159497 0)
(8.09376 -0.000187736 0)
(8.09386 -0.000215648 0)
(8.09398 -0.000243237 0)
(8.09412 -0.000270508 0)
(8.09428 -0.000297465 0)
(8.09445 -0.000324116 0)
(8.09464 -0.000350465 0)
(8.09485 -0.00037652 0)
(8.09508 -0.000402288 0)
(8.09533 -0.000427775 0)
(8.09559 -0.000452989 0)
(8.09587 -0.00047794 0)
(8.09616 -0.000502636 0)
(8.09647 -0.000527087 0)
(8.0968 -0.000551302 0)
(8.09715 -0.000575294 0)
(8.09751 -0.000599072 0)
(8.09789 -0.000622651 0)
(8.09828 -0.000646043 0)
(8.09869 -0.000669263 0)
(8.09911 -0.000692324 0)
(8.09955 -0.000715244 0)
(8.1 -0.000738039 0)
(8.10047 -0.000760726 0)
(8.10096 -0.000783327 0)
(8.10145 -0.000805859 0)
(8.10197 -0.000828345 0)
(8.1025 -0.000850807 0)
(8.10304 -0.000873268 0)
(8.1036 -0.000895755 0)
(8.10417 -0.000918293 0)
(8.10476 -0.00094091 0)
(8.10537 -0.000963634 0)
(8.10598 -0.000986497 0)
(8.10662 -0.00100953 0)
(8.10726 -0.00103277 0)
(8.10793 -0.00105624 0)
(8.1086 -0.00107998 0)
(8.1093 -0.00110404 0)
(8.11001 -0.00112845 0)
(8.11073 -0.00115325 0)
(8.11147 -0.00117847 0)
(8.11223 -0.00120417 0)
(8.113 -0.00123039 0)
(8.11379 -0.00125718 0)
(8.1146 -0.00128457 0)
(8.11542 -0.00131262 0)
(8.11627 -0.00134138 0)
(8.11713 -0.0013709 0)
(8.11801 -0.00140123 0)
(8.1189 -0.00143242 0)
(8.11982 -0.00146454 0)
(8.12076 -0.00149763 0)
(8.12172 -0.00153175 0)
(8.1227 -0.00156697 0)
(8.1237 -0.00160334 0)
(8.12473 -0.00164093 0)
(8.12578 -0.0016798 0)
(8.12685 -0.00172001 0)
(8.12795 -0.00176164 0)
(8.12907 -0.00180476 0)
(8.13023 -0.00184943 0)
(8.13141 -0.00189573 0)
(8.13261 -0.00194374 0)
(8.13385 -0.00199354 0)
(8.13512 -0.00204521 0)
(8.13642 -0.00209884 0)
(8.13776 -0.00215452 0)
(8.13913 -0.00221234 0)
(8.14053 -0.0022724 0)
(8.14197 -0.0023348 0)
(8.14346 -0.00239964 0)
(8.14498 -0.00246704 0)
(8.14654 -0.0025371 0)
(8.14815 -0.00260996 0)
(8.1498 -0.00268572 0)
(8.1515 -0.00276453 0)
(8.15324 -0.00284651 0)
(8.15504 -0.0029318 0)
(8.15689 -0.00302055 0)
(8.1588 -0.00311291 0)
(8.16076 -0.00320904 0)
(8.16278 -0.00330908 0)
(8.16487 -0.0034132 0)
(8.16702 -0.00352158 0)
(8.16923 -0.00363439 0)
(8.17152 -0.00375179 0)
(8.17388 -0.00387397 0)
(8.17631 -0.00400111 0)
(8.17882 -0.00413338 0)
(8.18142 -0.00427097 0)
(8.1841 -0.00441407 0)
(8.18687 -0.00456284 0)
(8.18973 -0.00471747 0)
(8.19269 -0.00487813 0)
(8.19575 -0.00504499 0)
(8.19891 -0.0052182 0)
(8.20218 -0.00539791 0)
(8.20556 -0.00558427 0)
(8.20906 -0.00577739 0)
(8.21268 -0.00597739 0)
(8.21643 -0.00618436 0)
(8.22031 -0.00639838 0)
(8.22432 -0.00661949 0)
(8.22847 -0.00684772 0)
(8.23276 -0.00708307 0)
(8.23721 -0.00732552 0)
(8.24181 -0.007575 0)
(8.24657 -0.00783141 0)
(8.25149 -0.00809462 0)
(8.25658 -0.00836447 0)
(8.26184 -0.00864073 0)
(8.26729 -0.00892317 0)
(8.27291 -0.00921147 0)
(8.27872 -0.00950531 0)
(8.28472 -0.00980429 0)
(8.29092 -0.010108 0)
(8.29731 -0.0104159 0)
(8.30391 -0.0107275 0)
(8.31071 -0.0110423 0)
(8.31771 -0.0113596 0)
(8.32493 -0.0116788 0)
(8.33236 -0.0119993 0)
(8.34001 -0.0123202 0)
(8.34786 -0.0126408 0)
(8.35594 -0.0129604 0)
(8.36422 -0.0132782 0)
(8.37273 -0.0135934 0)
(8.38144 -0.0139051 0)
(8.39037 -0.0142126 0)
(8.39951 -0.014515 0)
(8.40886 -0.0148114 0)
(8.41841 -0.0151012 0)
(8.42816 -0.0153835 0)
(8.43811 -0.0156576 0)
(8.44825 -0.0159226 0)
(8.45858 -0.0161781 0)
(8.46908 -0.0164232 0)
(8.47977 -0.0166574 0)
(8.49061 -0.0168802 0)
(8.50162 -0.0170909 0)
(8.51279 -0.0172892 0)
(8.52409 -0.0174746 0)
(8.53554 -0.0176467 0)
(8.54711 -0.0178054 0)
(8.5588 -0.0179502 0)
(8.5706 -0.0180811 0)
(8.5825 -0.018198 0)
(8.59449 -0.0183006 0)
(8.60657 -0.018389 0)
(8.61871 -0.0184633 0)
(8.63092 -0.0185234 0)
(8.64319 -0.0185695 0)
(8.65549 -0.0186017 0)
(8.66783 -0.0186203 0)
(8.6802 -0.0186254 0)
(8.69258 -0.0186174 0)
(8.70497 -0.0185964 0)
(8.71736 -0.0185629 0)
(8.72973 -0.0185172 0)
(8.74209 -0.0184595 0)
(8.75442 -0.0183904 0)
(8.76671 -0.0183102 0)
(8.77896 -0.0182192 0)
(8.79116 -0.018118 0)
(8.8033 -0.018007 0)
(8.81537 -0.0178865 0)
(8.82738 -0.017757 0)
(8.8393 -0.0176189 0)
(8.85114 -0.0174727 0)
(8.86289 -0.0173188 0)
(8.87455 -0.0171576 0)
(8.88611 -0.0169896 0)
(8.89756 -0.0168151 0)
(8.9089 -0.0166345 0)
(8.92012 -0.0164484 0)
(8.93123 -0.0162569 0)
(8.94221 -0.0160607 0)
(8.95307 -0.0158599 0)
(8.9638 -0.0156551 0)
(8.9744 -0.0154465 0)
(8.98486 -0.0152344 0)
(8.99518 -0.0150193 0)
(9.00536 -0.0148015 0)
(9.01541 -0.0145812 0)
(9.0253 -0.0143588 0)
(9.03506 -0.0141345 0)
(9.04466 -0.0139087 0)
(9.05412 -0.0136817 0)
(9.06342 -0.0134536 0)
(9.07258 -0.0132248 0)
(9.08158 -0.0129954 0)
(9.09044 -0.0127658 0)
(9.09914 -0.0125362 0)
(9.10769 -0.0123067 0)
(9.11608 -0.0120777 0)
(9.12433 -0.0118492 0)
(9.13242 -0.0116215 0)
(9.14036 -0.0113948 0)
(9.14815 -0.0111693 0)
(9.15579 -0.0109451 0)
(9.16328 -0.0107223 0)
(9.17061 -0.0105013 0)
(9.17781 -0.010282 0)
(9.18485 -0.0100647 0)
(9.19175 -0.00984953 0)
(9.1985 -0.00963655 0)
(9.20511 -0.00942594 0)
(9.21157 -0.00921782 0)
(9.2179 -0.00901232 0)
(9.22409 -0.00880954 0)
(9.23014 -0.00860961 0)
(9.23605 -0.00841265 0)
(9.24184 -0.00821876 0)
(9.24749 -0.00802807 0)
(9.25301 -0.00784069 0)
(9.2584 -0.00765675 0)
(9.26367 -0.00747638 0)
(9.26881 -0.00729976 0)
(9.27384 -0.00712708 0)
(9.27875 -0.00695857 0)
(9.28354 -0.00679455 0)
(9.28822 -0.00663543 0)
(9.29279 -0.00648184 0)
(9.29726 -0.00633445 0)
(9.30161 -0.0061957 0)
(9.30592 -0.00606391 0)
(9.30988 -0.00595863 0)
(9.31526 -0.00580503 0)
(9.94546 0.725988 0)
(9.82597 0.524078 0)
(9.67687 0.393788 0)
(9.54204 0.299185 0)
(9.42459 0.230707 0)
(9.32185 0.183502 0)
(9.23373 0.150453 0)
(9.15855 0.126327 0)
(9.09368 0.108266 0)
(9.03709 0.0944713 0)
(8.9873 0.0836722 0)
(8.94311 0.0750162 0)
(8.90353 0.0679423 0)
(8.86781 0.0620642 0)
(8.83533 0.0571066 0)
(8.80562 0.0528707 0)
(8.77828 0.0492109 0)
(8.75299 0.0460174 0)
(8.7295 0.0432066 0)
(8.70758 0.0407134 0)
(8.68706 0.0384868 0)
(8.66778 0.0364858 0)
(8.6496 0.0346775 0)
(8.63243 0.0330352 0)
(8.61616 0.0315366 0)
(8.60071 0.0301635 0)
(8.586 0.0289004 0)
(8.57198 0.0277343 0)
(8.55859 0.0266543 0)
(8.54577 0.0256509 0)
(8.53349 0.0247161 0)
(8.5217 0.0238428 0)
(8.51038 0.023025 0)
(8.49948 0.0222574 0)
(8.48898 0.0215353 0)
(8.47886 0.0208546 0)
(8.46909 0.0202117 0)
(8.45965 0.0196034 0)
(8.45052 0.0190268 0)
(8.44169 0.0184794 0)
(8.43313 0.017959 0)
(8.42483 0.0174634 0)
(8.41679 0.0169908 0)
(8.40898 0.0165396 0)
(8.4014 0.0161082 0)
(8.39403 0.0156952 0)
(8.38686 0.0152994 0)
(8.37989 0.0149197 0)
(8.3731 0.0145551 0)
(8.3665 0.0142044 0)
(8.36006 0.013867 0)
(8.35379 0.013542 0)
(8.34768 0.0132287 0)
(8.34171 0.0129263 0)
(8.33589 0.0126342 0)
(8.33022 0.0123519 0)
(8.32467 0.0120788 0)
(8.31926 0.0118144 0)
(8.31397 0.0115583 0)
(8.3088 0.01131 0)
(8.30375 0.0110691 0)
(8.29882 0.0108352 0)
(8.29399 0.010608 0)
(8.28927 0.0103872 0)
(8.28465 0.0101724 0)
(8.28013 0.00996339 0)
(8.27571 0.00975985 0)
(8.27139 0.00956153 0)
(8.26715 0.0093682 0)
(8.26301 0.00917964 0)
(8.25895 0.00899563 0)
(8.25497 0.00881597 0)
(8.25108 0.00864047 0)
(8.24727 0.00846896 0)
(8.24354 0.00830126 0)
(8.23988 0.00813721 0)
(8.23629 0.00797668 0)
(8.23278 0.0078195 0)
(8.22934 0.00766555 0)
(8.22597 0.0075147 0)
(8.22267 0.00736682 0)
(8.21943 0.0072218 0)
(8.21626 0.00707954 0)
(8.21315 0.00693992 0)
(8.21011 0.00680284 0)
(8.20712 0.00666822 0)
(8.2042 0.00653596 0)
(8.20133 0.00640598 0)
(8.19852 0.0062782 0)
(8.19577 0.00615253 0)
(8.19308 0.00602891 0)
(8.19043 0.00590727 0)
(8.18784 0.00578754 0)
(8.18531 0.00566965 0)
(8.18282 0.00555355 0)
(8.18039 0.00543917 0)
(8.17801 0.00532646 0)
(8.17567 0.00521538 0)
(8.17339 0.00510587 0)
(8.17115 0.00499787 0)
(8.16896 0.00489136 0)
(8.16682 0.00478628 0)
(8.16472 0.00468259 0)
(8.16266 0.00458025 0)
(8.16065 0.00447923 0)
(8.15869 0.00437949 0)
(8.15677 0.004281 0)
(8.15488 0.00418372 0)
(8.15305 0.00408762 0)
(8.15125 0.00399269 0)
(8.14949 0.00389887 0)
(8.14778 0.00380616 0)
(8.1461 0.00371453 0)
(8.14446 0.00362395 0)
(8.14287 0.0035344 0)
(8.14131 0.00344586 0)
(8.13978 0.00335831 0)
(8.1383 0.00327174 0)
(8.13685 0.00318611 0)
(8.13544 0.00310143 0)
(8.13406 0.00301766 0)
(8.13273 0.0029348 0)
(8.13142 0.00285282 0)
(8.13015 0.00277173 0)
(8.12892 0.00269149 0)
(8.12772 0.00261211 0)
(8.12655 0.00253356 0)
(8.12541 0.00245584 0)
(8.12431 0.00237894 0)
(8.12325 0.00230284 0)
(8.12221 0.00222753 0)
(8.1212 0.00215301 0)
(8.12023 0.00207927 0)
(8.11929 0.0020063 0)
(8.11838 0.00193409 0)
(8.1175 0.00186263 0)
(8.11665 0.00179192 0)
(8.11583 0.00172196 0)
(8.11504 0.00165272 0)
(8.11427 0.00158422 0)
(8.11354 0.00151643 0)
(8.11284 0.00144937 0)
(8.11216 0.00138301 0)
(8.11151 0.00131737 0)
(8.11089 0.00125242 0)
(8.1103 0.00118818 0)
(8.10973 0.00112462 0)
(8.10919 0.00106176 0)
(8.10868 0.000999575 0)
(8.10819 0.000938074 0)
(8.10773 0.000877248 0)
(8.10729 0.000817093 0)
(8.10688 0.000757605 0)
(8.10649 0.000698779 0)
(8.10613 0.000640612 0)
(8.10579 0.000583098 0)
(8.10548 0.000526234 0)
(8.10519 0.000470015 0)
(8.10492 0.000414437 0)
(8.10468 0.000359495 0)
(8.10446 0.000305185 0)
(8.10426 0.000251502 0)
(8.10408 0.000198442 0)
(8.10393 0.000145998 0)
(8.1038 9.41679e-05 0)
(8.10369 4.29446e-05 0)
(8.1036 -7.67629e-06 0)
(8.10353 -5.77005e-05 0)
(8.10349 -0.000107133 0)
(8.10346 -0.000155981 0)
(8.10346 -0.00020425 0)
(8.10347 -0.000251946 0)
(8.1035 -0.000299078 0)
(8.10356 -0.000345651 0)
(8.10363 -0.000391676 0)
(8.10372 -0.000437158 0)
(8.10383 -0.000482109 0)
(8.10396 -0.000526537 0)
(8.10411 -0.000570453 0)
(8.10427 -0.000613868 0)
(8.10446 -0.000656792 0)
(8.10466 -0.00069924 0)
(8.10488 -0.000741222 0)
(8.10511 -0.000782755 0)
(8.10537 -0.000823853 0)
(8.10564 -0.000864532 0)
(8.10592 -0.000904809 0)
(8.10623 -0.000944702 0)
(8.10655 -0.00098423 0)
(8.10688 -0.00102342 0)
(8.10723 -0.00106228 0)
(8.1076 -0.00110084 0)
(8.10798 -0.00113914 0)
(8.10838 -0.00117718 0)
(8.10879 -0.00121501 0)
(8.10922 -0.00125264 0)
(8.10967 -0.00129012 0)
(8.11013 -0.00132748 0)
(8.1106 -0.00136474 0)
(8.11109 -0.00140196 9.37642e-103)
(8.11159 -0.00143916 -9.37666e-103)
(8.11211 -0.00147639 0)
(8.11264 -0.00151369 0)
(8.11319 -0.00155111 0)
(8.11375 -0.0015887 0)
(8.11433 -0.0016265 0)
(8.11492 -0.00166457 0)
(8.11553 -0.00170297 0)
(8.11615 -0.00174174 0)
(8.11679 -0.00178095 0)
(8.11744 -0.00182066 0)
(8.1181 -0.00186094 0)
(8.11879 -0.00190184 0)
(8.11948 -0.00194345 0)
(8.1202 -0.00198582 0)
(8.12092 -0.00202903 0)
(8.12167 -0.00207315 0)
(8.12243 -0.00211827 0)
(8.12321 -0.00216446 0)
(8.12401 -0.0022118 0)
(8.12482 -0.00226037 0)
(8.12565 -0.00231027 0)
(8.1265 -0.00236157 0)
(8.12737 -0.00241437 0)
(8.12825 -0.00246876 0)
(8.12916 -0.00252484 0)
(8.13009 -0.00258269 0)
(8.13103 -0.00264242 0)
(8.132 -0.00270414 0)
(8.133 -0.00276794 0)
(8.13401 -0.00283394 0)
(8.13505 -0.00290223 0)
(8.13611 -0.00297295 0)
(8.1372 -0.00304621 0)
(8.13831 -0.00312212 0)
(8.13945 -0.00320082 0)
(8.14062 -0.00328243 0)
(8.14182 -0.00336709 0)
(8.14305 -0.00345495 0)
(8.14431 -0.00354614 0)
(8.1456 -0.00364083 0)
(8.14692 -0.00373916 0)
(8.14828 -0.00384131 0)
(8.14968 -0.00394745 0)
(8.15111 -0.00405776 0)
(8.15258 -0.00417243 0)
(8.15409 -0.00429165 0)
(8.15564 -0.00441563 0)
(8.15724 -0.00454457 0)
(8.15888 -0.00467872 0)
(8.16056 -0.00481828 0)
(8.1623 -0.00496351 0)
(8.16409 -0.00511465 0)
(8.16593 -0.00527195 0)
(8.16782 -0.00543569 0)
(8.16978 -0.00560614 0)
(8.17179 -0.00578357 0)
(8.17386 -0.00596827 0)
(8.176 -0.00616055 0)
(8.1782 -0.00636069 0)
(8.18048 -0.006569 0)
(8.18283 -0.00678578 0)
(8.18526 -0.00701135 0)
(8.18776 -0.007246 0)
(8.19035 -0.00749005 0)
(8.19302 -0.0077438 0)
(8.19579 -0.00800754 0)
(8.19864 -0.00828155 0)
(8.2016 -0.00856611 0)
(8.20465 -0.00886149 0)
(8.20782 -0.00916791 0)
(8.21109 -0.00948561 0)
(8.21447 -0.00981478 0)
(8.21798 -0.0101556 0)
(8.22161 -0.0105082 0)
(8.22536 -0.0108726 0)
(8.22925 -0.011249 0)
(8.23328 -0.0116374 0)
(8.23745 -0.0120377 0)
(8.24177 -0.0124498 0)
(8.24624 -0.0128736 0)
(8.25087 -0.0133089 0)
(8.25566 -0.0137555 0)
(8.26062 -0.0142129 0)
(8.26575 -0.0146808 0)
(8.27106 -0.0151588 0)
(8.27655 -0.0156462 0)
(8.28223 -0.0161425 0)
(8.2881 -0.0166468 0)
(8.29416 -0.0171586 0)
(8.30043 -0.0176768 0)
(8.30689 -0.0182006 0)
(8.31357 -0.0187289 0)
(8.32045 -0.0192608 0)
(8.32755 -0.019795 0)
(8.33485 -0.0203303 0)
(8.34238 -0.0208656 0)
(8.35012 -0.0213995 0)
(8.35808 -0.0219307 0)
(8.36626 -0.0224579 0)
(8.37466 -0.0229797 0)
(8.38328 -0.0234947 0)
(8.39211 -0.0240015 0)
(8.40115 -0.0244988 0)
(8.41041 -0.0249852 0)
(8.41988 -0.0254594 0)
(8.42955 -0.0259201 0)
(8.43942 -0.0263661 0)
(8.44948 -0.0267962 0)
(8.45974 -0.0272094 0)
(8.47018 -0.0276045 0)
(8.4808 -0.0279806 0)
(8.49159 -0.0283368 0)
(8.50254 -0.0286723 0)
(8.51365 -0.0289865 0)
(8.5249 -0.0292787 0)
(8.5363 -0.0295484 0)
(8.54782 -0.0297951 0)
(8.55947 -0.0300185 0)
(8.57123 -0.0302185 0)
(8.58309 -0.0303948 0)
(8.59504 -0.0305473 0)
(8.60708 -0.0306762 0)
(8.61919 -0.0307814 0)
(8.63136 -0.0308632 0)
(8.64359 -0.0309219 0)
(8.65586 -0.0309576 0)
(8.66816 -0.0309709 0)
(8.6805 -0.030962 0)
(8.69284 -0.0309317 0)
(8.7052 -0.0308802 0)
(8.71755 -0.0308082 0)
(8.72989 -0.0307164 0)
(8.74221 -0.0306053 0)
(8.75451 -0.0304756 0)
(8.76677 -0.030328 0)
(8.77898 -0.0301631 0)
(8.79114 -0.0299817 0)
(8.80325 -0.0297845 0)
(8.81529 -0.0295723 0)
(8.82725 -0.0293456 0)
(8.83914 -0.0291053 0)
(8.85095 -0.0288521 0)
(8.86266 -0.0285866 0)
(8.87428 -0.0283097 0)
(8.8858 -0.0280219 0)
(8.89721 -0.027724 0)
(8.90851 -0.0274166 0)
(8.9197 -0.0271004 0)
(8.93077 -0.026776 0)
(8.94172 -0.0264441 0)
(8.95254 -0.0261053 0)
(8.96323 -0.0257601 0)
(8.97379 -0.0254092 0)
(8.98422 -0.025053 0)
(8.99451 -0.0246922 0)
(9.00465 -0.0243272 0)
(9.01466 -0.0239587 0)
(9.02452 -0.0235869 0)
(9.03424 -0.0232126 0)
(9.04381 -0.022836 0)
(9.05324 -0.0224576 0)
(9.06251 -0.0220779 0)
(9.07164 -0.0216973 0)
(9.08061 -0.0213162 0)
(9.08944 -0.0209349 0)
(9.09811 -0.0205538 0)
(9.10663 -0.0201732 0)
(9.115 -0.0197936 0)
(9.12321 -0.0194152 0)
(9.13128 -0.0190383 0)
(9.13919 -0.0186633 0)
(9.14696 -0.0182904 0)
(9.15457 -0.0179199 0)
(9.16204 -0.017552 0)
(9.16935 -0.0171871 0)
(9.17652 -0.0168253 0)
(9.18354 -0.016467 0)
(9.19042 -0.0161123 0)
(9.19715 -0.0157615 0)
(9.20374 -0.0154147 0)
(9.21019 -0.0150722 0)
(9.2165 -0.0147342 0)
(9.22266 -0.014401 0)
(9.2287 -0.0140726 0)
(9.2346 -0.0137493 0)
(9.24036 -0.0134314 0)
(9.246 -0.0131189 0)
(9.2515 -0.0128123 0)
(9.25688 -0.0125118 0)
(9.26214 -0.0122176 0)
(9.26727 -0.0119302 0)
(9.27228 -0.01165 0)
(9.27718 -0.0113777 0)
(9.28196 -0.0111141 0)
(9.28664 -0.0108604 0)
(9.29119 -0.0106186 0)
(9.29569 -0.0103905 0)
(9.29983 -0.0101819 0)
(9.3054 -0.0099805 0)
(9.95588 0.782306 0)
(9.89616 0.625106 0)
(9.80208 0.503543 0)
(9.70137 0.409227 0)
(9.60378 0.335308 0)
(9.511 0.278459 0)
(9.42519 0.234844 0)
(9.3475 0.200896 0)
(9.27754 0.174141 0)
(9.21453 0.152833 0)
(9.15771 0.135641 0)
(9.10634 0.121574 0)
(9.05971 0.109913 0)
(9.0172 0.100132 0)
(8.97828 0.0918337 0)
(8.94249 0.0847211 0)
(8.90945 0.0785674 0)
(8.87882 0.0731979 0)
(8.85034 0.0684764 0)
(8.82376 0.0642955 0)
(8.79887 0.0605696 0)
(8.77551 0.0572299 0)
(8.75351 0.0542203 0)
(8.73275 0.0514949 0)
(8.71311 0.0490157 0)
(8.6945 0.0467512 0)
(8.67681 0.0446747 0)
(8.65999 0.0427638 0)
(8.64394 0.0409995 0)
(8.62862 0.0393656 0)
(8.61397 0.0378479 0)
(8.59994 0.0364345 0)
(8.58649 0.0351148 0)
(8.57357 0.0338797 0)
(8.56115 0.0327211 0)
(8.5492 0.0316321 0)
(8.53769 0.0306064 0)
(8.52659 0.0296384 0)
(8.51588 0.0287234 0)
(8.50553 0.0278569 0)
(8.49552 0.027035 0)
(8.48584 0.0262543 0)
(8.47647 0.0255115 0)
(8.46738 0.024804 0)
(8.45858 0.024129 0)
(8.45003 0.0234844 0)
(8.44174 0.0228679 0)
(8.43368 0.0222776 0)
(8.42585 0.0217119 0)
(8.41824 0.021169 0)
(8.41083 0.0206476 0)