# p  FACE_DATA 11666
# x y z  p
0.0596589 0.0485184 0.00125 -36.9596
0.101562 0.0658665 0.00124988 -63.0676
0.134326 0.0763298 0.00125007 -72.274
0.0156349 -0.00987769 0.00124999 -27.9358
0.00986925 -0.00870838 0.00875 -48.1399
0.015635 -0.00987629 0.00874999 -28.5923
0.0241069 -0.0106137 0.00124999 -19.2073
0.0176922 -0.0101479 0.00874997 -38.5269
0.0241084 -0.0106006 0.00875 -17.8682
0.00763978 -0.00781489 0.00875 -24.5143
0.00249986 0.007756 0.00124998 71.5336
0.00249976 0.00775583 0.00875 71.1896
0.0100541 0.0171346 0.00125 29.3739
0.0100541 0.0171346 0.00875 29.0583
0.0346937 0.0353866 0.00125 -15.6292
0.0346936 0.0353866 0.00875 -15.8953
0.0515461 0.0446016 0.00125 -36.3684
0.0515461 0.0446016 0.00875 -36.5463
0.0596591 0.0485182 0.00875 -37.0611
0.0739278 0.0550046 0.00124997 -47.6943
0.0739295 0.0549989 0.00875 -48.7612
0.0761697 0.0559647 0.00125002 -46.0861
0.0761716 0.055959 0.00875 -44.39
0.0992795 0.0650143 0.00125006 -58.5912
0.0992798 0.0650141 0.00875 -58.7105
0.124167 0.0734248 0.0012499 -78.8966
0.124168 0.0734247 0.00875 -79.0802
0.126 0.0739553 0.0012501 -79.8112
0.126001 0.0739544 0.00875 -79.9887
0.00348497 -0.00540105 0.00375 0.86455
0.00348498 -0.00540103 0.00125 -9.95451
0.00390561 0.00991142 0.00125001 64.148
0.00390554 0.00991136 0.00375001 79.2682
0.0123385 0.0192647 0.00125 23.7182
0.0123385 0.0192647 0.00375 28.9439
0.0285313 0.0316828 0.00375 -19.7851
0.0285313 0.0316828 0.00125 -18.4469
0.0451676 0.0412112 0.00375 -25.5467
0.0618131 0.0495539 0.00374999 -38.9791
0.0596589 0.0485185 0.00375001 -37.2386
0.0783681 0.0569126 0.00125 -50.3133
0.0783681 0.0569126 0.00374999 -50.8204
0.0867428 0.0603561 0.00375001 -60.7347
0.101562 0.0658665 0.00375 -63.7367
0.103292 0.0664919 0.00124992 -67.5963
0.103292 0.066492 0.00374999 -68.5237
0.111447 0.0692183 0.00375004 -67.5348
0.134325 0.0763333 0.00374992 -73.5464
0.136722 0.0770123 0.00124995 -68.1159
0.136721 0.0770159 0.00375005 -71.693
0.145051 0.0793848 0.00375008 -75.3213
0.0156347 -0.00987844 0.00375 -35.3364
0.0136076 -0.00949862 0.00125 -30.1018
0.0136076 -0.00949862 0.00375 -37.9435
0.0176912 -0.0101618 0.00374995 -46.9476
0.0197529 -0.0103145 0.00125003 -29.5836
0.0197524 -0.0103197 0.00375004 -38.8503
0.0241068 -0.0106201 0.00374998 -26.1003
0.0217146 -0.0104413 0.00125002 -21.9213
0.0217143 -0.0104492 0.00375006 -29.809
0.0282211 -0.0108018 0.00375 -28.3864
0.0302103 -0.0108156 0.00375 -22.1587
0.0076396 -0.0078153 0.00375001 -26.4104
0.00547024 -0.00679722 0.00125 -41.6904
0.00143952 -0.00309457 0.00125002 38.0144
0.00249975 0.00775596 0.00374998 90.0781
0.0058448 0.0124572 0.00375 61.3902
0.0079031 0.0148477 0.00375 54.4985
0.0100541 0.0171346 0.00375 36.2459
0.0141149 0.0208497 0.00374999 27.5159
0.0201896 0.0257898 0.00125 4.87909
0.0326383 0.0341513 0.00375 -12.2787
0.0346936 0.0353866 0.00375 -16.0163
0.0367466 0.0366202 0.00125 -19.542
0.0367466 0.0366202 0.00375 -20.4479
0.0515461 0.0446016 0.00374999 -36.6692
0.0531428 0.0453811 0.00125 -38.6847
0.0639772 0.0505932 0.00375 -41.5759
0.0700375 0.053339 0.00125 -44.6822
0.0739264 0.0550072 0.00374994 -48.3126
0.0722766 0.0543039 0.00125 -45.8295
0.0761684 0.0559673 0.00375005 -47.8269
0.0805723 0.0578565 0.00125 -52.569
0.0805723 0.0578565 0.00375 -53.3156
0.0930067 0.0626838 0.00125 -55.5018
0.0952866 0.0635344 0.00125 -57.6807
0.099279 0.0650161 0.00375 -59.9352
0.0969659 0.0641545 0.00125 -59.1819
0.105094 0.0670986 0.0012501 -69.0512
0.105092 0.0671034 0.0037499 -70.0483
0.113773 0.0699913 0.00374998 -65.2986
0.120117 0.072101 0.00374998 -69.6339
0.120118 0.0720993 0.00125 -66.9872
0.124167 0.0734249 0.00375 -80.6648
0.12242 0.0728681 0.00125 -72.2294
0.125998 0.0739606 0.00374987 -80.4155
0.128392 0.0746367 0.00125 -67.4619
0.139046 0.0776819 0.00375 -75.5752
0.0156348 -0.00987736 0.00625 -35.7249
0.0136075 -0.00949862 0.00875 -30.6684
0.0136075 -0.00949862 0.00625 -38.2758
0.0176916 -0.0101555 0.00624994 -47.514
0.0197534 -0.0103035 0.00875 -28.9105
0.0197528 -0.0103122 0.00625 -38.2974
0.0241076 -0.0106114 0.00625002 -25.4409
0.0217161 -0.0104253 0.00874999 -22.9886
0.0217152 -0.0104383 0.00625004 -30.5438
0.0282212 -0.0108018 0.00624999 -28.6818
0.0302103 -0.0108155 0.00625 -22.3233
0.00348497 -0.00540105 0.00625 0.360173
0.00348498 -0.00540103 0.00875 -10.6505
0.00763959 -0.00781529 0.00625 -26.7472
0.00547019 -0.00679721 0.00875 -42.2888
0.00249971 0.0077559 0.00624999 89.7516
0.00390549 0.00991128 0.00625 78.9716
0.00584477 0.0124572 0.00625 61.1456
0.00790308 0.0148476 0.00875 43.4614
0.0100541 0.0171346 0.00625001 36.0364
0.0123385 0.0192647 0.00624999 28.7282
0.0141149 0.0208497 0.00625001 27.2644
0.0158688 0.0224099 0.00874999 15.9229
0.0182596 0.0243548 0.00874999 1.12296
0.0201895 0.0257898 0.00875 4.51756
0.0285313 0.0316828 0.00625 -19.9122
0.0285313 0.0316829 0.00875 -18.7466
0.0326383 0.0341513 0.00875 -12.0606
0.0346936 0.0353866 0.00625 -16.1666
0.0367466 0.0366202 0.00875 -19.7788
0.0367466 0.0366202 0.00625 -20.5699
0.0409383 0.038949 0.00625 -24.4835
0.0451676 0.0412112 0.00625 -25.6549
0.0451676 0.0412112 0.00875 -24.7533
0.0515461 0.0446016 0.00625 -36.7517
0.0531429 0.0453804 0.00875 -38.9351
0.0553392 0.0464351 0.00875 -32.15
0.0618131 0.0495539 0.00624999 -39.0772
0.059659 0.0485184 0.00625 -37.2984
0.0639771 0.0505932 0.00625 -41.6693
0.0739276 0.0550035 0.00624998 -48.9487
0.0722765 0.0543039 0.00875 -46.1635
0.0761697 0.0559636 0.00625003 -47.0669
0.0867429 0.060356 0.00625 -60.7498
0.0930069 0.0626832 0.00875001 -55.3985
0.0952867 0.0635344 0.00875 -57.8751
0.0992791 0.065016 0.00625 -60.004
0.096966 0.0641543 0.00875 -59.4122
0.107436 0.0678759 0.00625005 -61.2292
0.111447 0.0692181 0.00624994 -67.9564
0.113773 0.0699911 0.00625004 -65.2655
0.120117 0.0721009 0.00625003 -69.6626
0.124167 0.0734248 0.00625009 -80.7568
0.122419 0.0728681 0.00875 -72.3715
0.125999 0.0739601 0.00624999 -80.492
0.128392 0.074636 0.00875 -67.3624
0.128391 0.0746415 0.00624997 -70.4998
0.139047 0.0776819 0.00625 -75.9824
0.145051 0.0793845 0.00625001 -75.2498
0.00986926 -0.00870838 0.00124999 -47.6318
0.0076398 -0.00781489 0.00125 -24.0105
0.0176917 -0.0101574 0.00125007 -37.6554
0.000200385 0.00101878 0.00124999 90.0681
0.0265126 0.0304203 0.00125 -14.9512
0.0409383 0.038949 0.00125002 -23.1503
0.0430512 0.0400793 0.00124999 -22.642
0.0844473 0.0594811 0.00125001 -63.7523
0.109733 0.0686517 0.00125 -64.222
0.142658 0.0786991 0.00125 -76.3705
0.0264126 -0.0107599 0.00124996 -23.7958
0.0264128 -0.0107599 0.00875 -24.5546
0.00030057 -0.000910135 0.00124996 68.6128
0.000300479 -0.00090986 0.00875 67.9247
0.00143944 -0.00309431 0.00875 37.2276
0.000200372 0.00101871 0.00875 89.5374
0.0245666 0.0290269 0.00125 -3.6439
0.0220896 0.0271946 0.00125 3.99047
0.0245669 0.0290265 0.00875 -3.87513
0.0220899 0.0271942 0.00875 3.63219
0.0265126 0.0304203 0.00875 -15.2684
0.0409384 0.0389488 0.00875 -23.3057
0.0430512 0.0400793 0.00875 -22.8594
0.0574973 0.0474804 0.00125 -35.6684
0.055339 0.0464357 0.00125 -32.1519
0.0574975 0.0474802 0.00875 -35.8889
0.082793 0.0588075 0.00124999 -55.886
0.082793 0.0588075 0.00875 -55.9819
0.0844474 0.0594808 0.00875 -63.8856
0.107436 0.0678775 0.00124998 -58.9799
0.101562 0.0658665 0.00875 -63.456
0.107439 0.067868 0.00875 -55.4985
0.109734 0.0686517 0.00875 -65.5805
0.132483 0.0758129 0.00125 -72.1791
0.132483 0.0758129 0.00875 -72.5475
0.134327 0.0763232 0.00875 -73.688
0.140815 0.0781855 0.00125 -73.5874
0.140816 0.0781855 0.00875 -74.1196
0.142658 0.0786984 0.00875 -76.5887
0.00986924 -0.00870838 0.00375 -57.6492
0.011654 -0.00912788 0.00125001 -45.9813
0.0116539 -0.00912788 0.00374999 -56.7989
0.000200379 0.00101875 0.00374999 120.714
0.0013868 0.00543825 0.00125 85.6758
0.000586819 0.00298345 0.00125 92.5244
0.000586809 0.0029834 0.00375 119.411
0.0158685 0.0224104 0.00124999 16.2846
0.0182592 0.0243553 0.00125003 1.33993
0.0158681 0.0224108 0.00375001 20.0501
0.0182589 0.0243556 0.00374999 2.21183
0.0265126 0.0304203 0.00374999 -15.0639
0.0430512 0.0400793 0.00375 -23.6737
0.0409382 0.0389491 0.00375 -24.4109
0.0451676 0.0412112 0.00125 -24.5521
0.0618131 0.0495539 0.00125 -38.573
0.0700363 0.0533415 0.00375 -46.5369
0.0677828 0.0523723 0.00125 -53.6814
0.0677816 0.0523749 0.00374999 -52.5957
0.0844463 0.0594837 0.00375001 -63.3497
0.0867438 0.0603536 0.00125 -59.3574
0.109733 0.0686517 0.00375 -66.8751
0.107435 0.0678823 0.00375006 -63.0235
0.111448 0.0692157 0.00125 -65.2472
0.117778 0.0713216 0.00125 -67.7986
0.117778 0.0713233 0.00375003 -68.8558
0.142656 0.0787041 0.00374996 -77.1254
0.145053 0.0793798 0.00125 -72.2684
0.0264127 -0.0107599 0.00374998 -30.739
0.0282212 -0.0108018 0.00125 -22.3539
0.0302103 -0.0108155 0.00125 -17.4779
0.00547002 -0.00679765 0.00374999 -42.3398
0.00143948 -0.00309443 0.00375002 63.0206
0.000300522 -0.00090999 0.00374997 100.555
0.00138673 0.00543826 0.00375 107.234
0.00584483 0.0124572 0.00125 49.9854
0.00790312 0.0148477 0.00125 43.7966
0.014115 0.0208496 0.00125 21.7772
0.0201895 0.0257898 0.00374999 6.22021
0.0220894 0.0271949 0.00375001 5.3762
0.0245664 0.0290271 0.00375 -2.5006
0.0305852 0.0329173 0.00375 -13.0542
0.0326383 0.0341513 0.00125 -11.7977
0.0305852 0.0329173 0.00125 -11.7871
0.0388237 0.0378181 0.00124998 -27.7471
0.0388236 0.0378182 0.00375 -28.9269
0.0472819 0.042342 0.00375 -27.9427
0.0493989 0.0434742 0.00125 -30.3319
0.0493989 0.0434743 0.00375001 -30.8198
0.0472819 0.042342 0.00125 -27.0502
0.053141 0.0453847 0.00374996 -38.8932
0.0553372 0.0464394 0.00375002 -34.0981
0.0574973 0.0474805 0.00374999 -35.806
0.0639772 0.0505932 0.00125 -41.2729
0.0661609 0.0516418 0.00125 -45.2033
0.0661609 0.0516419 0.00375 -45.2323
0.0722765 0.0543039 0.00374998 -46.6901
0.082793 0.0588075 0.00375 -56.7034
0.0890204 0.0612055 0.00374999 -57.0285
0.0906999 0.0618265 0.00125 -56.8205
0.0906997 0.0618269 0.00375 -57.2968
0.0890204 0.0612055 0.00125 -56.567
0.0930065 0.0626842 0.00375001 -56.998
0.0952866 0.0635343 0.00374999 -58.8961
0.0969653 0.0641562 0.00375 -59.8106
0.113774 0.0699888 0.00125 -62.4609
0.116073 0.0707587 0.00125 -66.4119
0.116073 0.0707587 0.00375 -67.5251
0.12242 0.0728681 0.00375 -74.4693
0.128391 0.0746419 0.00375006 -70.5302
0.132483 0.0758129 0.00375 -73.3407
0.130713 0.075309 0.00125 -72.8511
0.130714 0.075309 0.00375 -73.2734
0.140816 0.0781856 0.00375 -75.8562
0.139046 0.0776818 0.00125 -73.0323
0.147379 0.080025 0.00374988 -85.1702
0.149162 0.0804761 0.00125 -78.3612
0.149162 0.080476 0.00375 -79.786
0.147379 0.0800251 0.00125 -84.8706
0.0264128 -0.0107599 0.00625001 -31.0516
0.0282212 -0.0108017 0.00875 -23.1298
0.0302103 -0.0108155 0.00875 -17.8733
0.00986925 -0.00870838 0.00625 -57.9267
0.0116539 -0.00912788 0.00875 -46.5148
0.0116539 -0.00912788 0.00625 -57.053
0.00547 -0.00679764 0.00625 -42.7679
0.00143945 -0.00309434 0.00625001 62.4329
0.000300489 -0.000909893 0.00624999 99.9774
0.000200374 0.00101872 0.00625 120.224
0.00138678 0.00543818 0.00875 85.3116
0.000586798 0.00298335 0.00875 92.0709
0.00138672 0.00543824 0.00625 106.872
0.000586801 0.00298336 0.00625 118.977
0.00390549 0.00991123 0.00875 63.7937
0.00584478 0.0124572 0.00875 49.6663
0.00790308 0.0148477 0.00624999 54.2459
0.0123384 0.0192647 0.00875 23.3721
0.0158684 0.0224104 0.00625 19.8144
0.0141149 0.0208496 0.00875 21.405
0.0182593 0.0243552 0.00625 2.10234
0.0201895 0.0257898 0.00624999 6.00951
0.0220896 0.0271946 0.00625001 5.17079
0.0245666 0.0290269 0.00625 -2.62358
0.0265127 0.0304203 0.00625 -15.221
0.0305852 0.0329173 0.00625 -13.2031
0.0326383 0.0341513 0.00625 -12.417
0.0305852 0.0329173 0.00875 -12.0957
0.0388238 0.0378178 0.00875 -27.9897
0.0388237 0.0378181 0.00625 -29.0371
0.0430512 0.0400793 0.00625 -23.79
0.0472819 0.042342 0.00625 -28.0562
0.049399 0.0434743 0.00875 -30.5099
0.049399 0.0434742 0.00625 -30.9206
0.0472819 0.042342 0.00875 -27.2405
0.053141 0.0453844 0.00625 -39.0061
0.0553373 0.0464391 0.00625001 -34.1229
0.0574974 0.0474803 0.00625 -35.9176
0.0618132 0.0495539 0.00875 -38.7388
0.0639771 0.0505931 0.00875 -41.4261
0.0661609 0.0516419 0.00874999 -45.3677
0.066161 0.0516419 0.00625 -45.3297
0.0700363 0.0533413 0.00625001 -46.6266
0.0677828 0.052372 0.00875001 -53.9036
0.0677817 0.0523748 0.00624999 -52.687
0.0700375 0.0533386 0.00875 -44.8327
0.0722764 0.0543039 0.00625 -46.8733
0.0783681 0.0569126 0.00875 -50.9395
0.0783681 0.0569126 0.00625 -50.9948
0.0805723 0.0578565 0.00875 -53.0187
0.0805723 0.0578565 0.00625 -53.5124
0.082793 0.0588075 0.00625 -56.7712
0.0844464 0.0594835 0.00624997 -63.4133
0.0867439 0.0603532 0.00875 -59.3771
0.0890205 0.0612055 0.00625 -57.104
0.0907001 0.0618259 0.00874999 -57.0548
0.0906999 0.0618264 0.00625 -57.4404
0.0890204 0.0612055 0.00875 -56.7137
0.0930067 0.0626838 0.00625 -56.9252
0.0952866 0.0635343 0.00625 -58.9835
0.0969653 0.0641562 0.00625 -59.9263
0.101562 0.0658665 0.00625 -63.9676
0.103292 0.0664918 0.00874999 -68.0677
0.103292 0.0664919 0.00625 -68.8156
0.105096 0.0670889 0.00875001 -71.0393
0.105094 0.067097 0.00624998 -71.2774
0.109733 0.0686517 0.00625 -67.3928
0.111447 0.0692154 0.00875 -66.1031
0.113773 0.0699884 0.00875 -62.3455
0.116073 0.0707587 0.00875 -66.5862
0.116073 0.0707587 0.00625 -67.5851
0.117778 0.0713215 0.00875 -68.0073
0.117778 0.0713233 0.00624996 -68.9461
0.120118 0.0720992 0.00875 -67.0381
0.12242 0.0728681 0.00625 -74.5347
0.132483 0.0758129 0.00625 -73.561
0.130713 0.075309 0.00875 -73.241
0.130713 0.0753091 0.00625 -73.476
0.134326 0.0763288 0.00624998 -74.4532
0.136724 0.0770058 0.00875 -65.6455
0.136722 0.0770114 0.00625004 -70.3647
0.140816 0.0781855 0.00625 -76.136
0.139046 0.0776819 0.00875 -74.0228
0.142656 0.0787038 0.00625 -77.2421
0.145053 0.0793791 0.00875 -72.118
0.14738 0.0800251 0.00625 -85.2237
0.149162 0.080476 0.00875 -78.5354
0.149162 0.0804761 0.00625 -79.8633
0.14738 0.080025 0.00875 -85.0207
0.0490523 -0.010642 0.00125001 4.90625
0.049052 -0.010642 0.00874999 3.01835
0.0490521 -0.010642 0.00375001 -2.64677
0.046909 -0.0106865 0.00374992 -2.14134
0.049052 -0.010642 0.00625001 -9.52087
0.0469091 -0.0106865 0.00875 2.85381
0.0469091 -0.0106865 0.00624997 -4.28704
0.551041 0.00119257 0 27.8294
0.559375 0.00119249 0 28.1994
0.567708 0.00119252 0 28.5527
0.567708 0.0107194 0 29.055
0.576042 0.00119259 0 28.8813
0.576041 0.0107218 0 29.3713
0.576021 0.0204946 0 29.7663
0.584375 0.00119258 0 29.1937
0.584374 0.0107217 0 29.6896
0.584355 0.0205525 0 30.0283
0.592709 0.00119253 0 29.4941
0.592708 0.0107159 0 30.0028
0.592705 0.0202704 0 30.2997
0.551041 0.00119257 0.01 27.8299
0.559375 0.0011925 0.01 28.1965
0.567708 0.00119252 0.01 28.5491
0.567708 0.0107193 0.01 29.0454
0.576042 0.0011926 0.01 28.8798
0.576041 0.0107217 0.01 29.3734
0.576024 0.020507 0.01 29.7582
0.584375 0.00119259 0.01 29.195
0.584374 0.0107215 0.01 29.6989
0.584355 0.0205506 0.01 30.0712
0.592709 0.00119254 0.01 29.4947
0.592708 0.0107159 0.01 30.0051
0.592705 0.0202704 0.01 30.2559
0.551041 -0.00114394 0 27.67
0.557292 -0.00114396 0 27.9453
0.559375 -0.00114396 0 28.0366
0.565625 -0.00114396 0 28.3008
0.567708 -0.00114396 0 28.3871
0.573959 -0.00114412 0 28.635
0.573955 0.0204681 0 29.5086
0.576041 -0.00114412 0 28.716
0.582292 -0.00114412 0 28.9513
0.582273 0.0205724 0 30.0184
0.584375 -0.00114412 0 29.029
0.590625 -0.00114413 0 29.2546
0.590744 0.0263698 0 30.2253
0.590616 0.0203182 0 30.2242
0.592708 -0.00114414 0 29.329
0.592779 0.026369 0 30.5063
0.557292 -0.00114383 0.01 27.9437
0.551041 -0.0011438 0.01 27.6709
0.565625 -0.00114382 0.01 28.2977
0.559375 -0.00114383 0.01 28.0347
0.573959 -0.00114387 0.01 28.6327
0.567708 -0.00114382 0.01 28.3842
0.57395 0.0204816 0.01 29.5621
0.582292 -0.00114387 0.01 28.9511
0.576041 -0.00114387 0.01 28.7145
0.582274 0.0205703 0.01 30.0064
0.590625 -0.00114389 0.01 29.2548
0.584375 -0.00114387 0.01 29.0294
0.590616 0.0203179 0.01 30.2008
0.590748 0.0263839 0.01 30.3946
0.592708 -0.00114389 0.01 29.3291
0.592771 0.0263899 0.01 30.2786
0.576042 0.00833589 0 29.2619
0.582291 0.00833604 0 29.4997
0.582291 0.00119259 0 29.1167
0.584375 0.00833572 0 29.5793
0.590625 0.00833435 0 29.8129
0.590625 0.00119254 0 29.4202
0.592708 0.00833392 0 29.8897
0.582291 0.0011926 0.01 29.1173
0.582291 0.00833598 0.01 29.5046
0.576042 0.00833583 0.01 29.2617
0.590625 0.00119255 0.01 29.4212
0.590625 0.00833432 0.01 29.8164
0.584375 0.00833567 0.01 29.5847
0.592708 0.00833391 0.01 29.8909
0.573942 0.0250296 0 29.858
0.571869 0.0248846 0 29.5466
0.578125 -0.00114366 0 28.7953
0.578125 -0.00309124 0 28.6379
0.576041 -0.00309272 0 28.5601
0.582292 -0.00309272 0 28.792
0.580209 -0.00309124 0 28.7143
0.580209 -0.00114366 0 28.8733
0.578093 0.025177 0 29.8553
0.576016 0.0251248 0 29.6339
0.582275 0.0254495 0 30.1568
0.58016 0.0253227 0 29.6178
0.586458 -0.00114367 0 29.1049
0.586458 -0.00309125 0 28.9431
0.584375 -0.00309273 0 28.8689
0.590625 -0.00309273 0 29.0904
0.588542 -0.00309125 0 29.016
0.588542 -0.00114368 0 29.1797
0.586364 0.0254581 0 29.9131
0.584312 0.0254866 0 29.6894
0.590633 0.0248887 0 30.2817
0.588415 0.0252343 0 30.4476
0.588893 0.0264646 0 30.4776
0.594791 -0.00114369 0 29.4016
0.594791 -0.00309125 0 29.2346
0.592708 -0.00309273 0 29.1638
0.596875 -0.00309125 0 29.3041
0.596875 -0.00114369 0 29.4729
0.592726 0.0247326 0 30.4563
0.551041 0.00833624 0 28.1763
0.557291 0.00833409 0 28.4668
0.557292 0.00119249 0 28.1075
0.559375 0.00833412 0 28.5666
0.565625 0.00833479 0 28.8483
0.565625 0.00119251 0 28.4667
0.567709 0.00833504 0 28.9364
0.573958 0.00833581 0 29.183
0.573958 0.00119259 0 28.801
0.567704 0.0179395 0 29.3867
0.573952 0.0179734 0 29.5406
0.573958 0.0107211 0 29.2946
0.576042 0.0035717 0 29.0184
0.578125 0.00357171 0 29.098
0.578125 0.00119257 0 28.9606
0.576035 0.017984 0 29.639
0.582284 0.0180013 0 29.8806
0.582291 0.0107224 0 29.6089
0.576024 0.0229785 0 29.7447
0.578099 0.0230199 0 29.6477
0.578119 0.0205171 0 29.651
0.584375 0.00357169 0 29.3332
0.586458 0.00357164 0 29.4105
0.586459 0.00119255 0 29.27
0.584367 0.0179915 0 29.9695
0.590621 0.0178984 0 30.1996
0.590625 0.0107171 0 29.9252
0.584345 0.0231664 0 29.9023
0.586414 0.0230751 0 30.2022
0.586437 0.0204932 0 30.1216
0.592708 0.0035715 0 29.6376
0.594791 0.00357147 0 29.712
0.594792 0.0011925 0 29.5671
0.592707 0.0178763 0 30.2807
0.592696 0.0226206 0 30.4319
0.557292 0.0011925 0.01 28.1053
0.557291 0.00833407 0.01 28.4577
0.551041 0.00833618 0.01 28.1734
0.565625 0.00119251 0.01 28.4628
0.565625 0.00833475 0.01 28.84
0.559375 0.0083341 0.01 28.5571
0.573958 0.00119259 0.01 28.7987
0.573958 0.00833575 0.01 29.1809
0.567709 0.008335 0.01 28.929
0.573958 0.010721 0.01 29.2937
0.573952 0.0179726 0.01 29.5457
0.567704 0.0179389 0.01 29.3622
0.578125 0.00119258 0.01 28.96
0.578125 0.0035717 0.01 29.0978
0.576042 0.00357169 0.01 29.017
0.582291 0.0107223 0.01 29.6176
0.582284 0.0180004 0.01 29.8926
0.576035 0.0179831 0.01 29.6422
0.578114 0.0205298 0.01 29.7407
0.578102 0.0230407 0.01 29.7389
0.576024 0.022987 0.01 29.8431
0.586459 0.00119256 0.01 29.2716
0.586458 0.00357164 0.01 29.4129
0.584375 0.00357168 0.01 29.3354
0.590625 0.0107171 0.01 29.9313
0.590621 0.0178981 0.01 30.2001
0.584367 0.0179906 0.01 29.9869
0.586437 0.0204916 0.01 30.2135
0.586411 0.0231199 0.01 30.3703
0.584351 0.0231886 0.01 29.9826
0.594792 0.00119251 0.01 29.5671
0.594791 0.00357147 0.01 29.7118
0.592708 0.0035715 0.01 29.6385
0.592707 0.0178762 0.01 30.2628
0.5927 0.0226377 0.01 30.3354
0.553125 -0.00114371 0 27.7624
0.553125 -0.00309131 0 27.6212
0.551041 -0.0030926 0 27.5311
0.557292 -0.00309261 0 27.8012
0.555209 -0.00309131 0 27.7104
0.555209 -0.00114372 0 27.8538
0.561458 -0.00114373 0 28.126
0.561458 -0.00309131 0 27.978
0.559375 -0.00309261 0 27.8913
0.565625 -0.00309261 0 28.1502
0.563542 -0.00309131 0 28.0635
0.563542 -0.00114372 0 28.2137
0.569791 -0.00114372 0 28.4711
0.569791 -0.00309131 0 28.3176
0.567708 -0.00309261 0 28.2357
0.573959 -0.00309273 0 28.4797
0.571875 -0.00309125 0 28.3982
0.571875 -0.00114367 0 28.5532
0.571856 0.020444 0 29.6873
0.571871 0.022848 0 29.6743
0.573942 0.0229232 0 29.6745
0.580191 0.0205658 0 29.8288
0.580192 0.0231514 0 29.6511
0.582254 0.0231967 0 30.2759
0.588524 0.0204022 0 30.2134
0.588506 0.0229095 0 30.4086
0.590606 0.0227487 0 30.3188
0.555209 -0.00114359 0.01 27.8534
0.555209 -0.00309047 0.01 27.7111
0.557292 -0.00309177 0.01 27.8001
0.551041 -0.00309176 0.01 27.5321
0.553125 -0.00309047 0.01 27.6226
0.553125 -0.00114358 0.01 27.7629
0.563542 -0.00114359 0.01 28.2112
0.563542 -0.00309047 0.01 28.0623
0.565625 -0.00309177 0.01 28.1476
0.559375 -0.00309177 0.01 27.8898
0.561458 -0.00309047 0.01 27.9772
0.561458 -0.00114359 0.01 28.1239
0.571875 -0.00114353 0.01 28.551
0.571875 -0.00309041 0.01 28.3968
0.573959 -0.00309178 0.01 28.4775
0.567708 -0.00309177 0.01 28.2332
0.569791 -0.00309047 0.01 28.3162
0.569791 -0.00114358 0.01 28.4688
0.573941 0.0229322 0.01 29.6159
0.571866 0.0228715 0.01 29.6359
0.57186 0.020457 0.01 29.6513
0.571866 0.0249236 0.01 29.6151
0.573942 0.0250429 0.01 29.5113
0.580209 -0.00114352 0.01 28.8731
0.580209 -0.00309041 0.01 28.7143
0.582292 -0.00309178 0.01 28.7912
0.576041 -0.00309178 0.01 28.5586
0.578125 -0.00309041 0.01 28.6377
0.578125 -0.00114352 0.01 28.7948
0.582258 0.0231803 0.01 30.1225
0.580188 0.0231388 0.01 29.7262
0.580191 0.0205637 0.01 29.8666
0.580165 0.0253423 0.01 29.7649
0.582266 0.0254528 0.01 29.8345
0.576014 0.025138 0.01 29.9985
0.578092 0.0252146 0.01 29.8809
0.588542 -0.00114354 0.01 29.1806
0.588542 -0.00309041 0.01 29.0169
0.590625 -0.00309179 0.01 29.0901
0.584375 -0.00309178 0.01 28.8687
0.586458 -0.00309041 0.01 28.944
0.586458 -0.00114353 0.01 29.106
0.590606 0.0227486 0.01 30.2404
0.5885 0.02293 0.01 30.4948
0.588524 0.0204013 0.01 30.2592
0.588891 0.0265043 0.01 30.3419
0.588419 0.0252804 0.01 30.4994
0.590628 0.024901 0.01 30.1018
0.584305 0.0255289 0.01 30.1023
0.586363 0.0255338 0.01 30.0193
0.596875 -0.00114355 0.01 29.4722
0.596875 -0.00309041 0.01 29.3038
0.592708 -0.00309179 0.01 29.1636
0.594791 -0.00309041 0.01 29.2349
0.594791 -0.00114354 0.01 29.4017
0.592723 0.0247675 0.01 30.3179
0.578125 0.00833593 0 29.341
0.578125 0.00595326 0 29.2277
0.576042 0.00595322 0 29.1484
0.582291 0.00595326 0 29.3855
0.580209 0.00595328 0 29.3068
0.580208 0.00833619 0 29.4203
0.580208 0.00119257 0 29.039
0.580209 0.00357172 0 29.1771
0.582291 0.00357171 0 29.2554
0.586458 0.00833551 0 29.6582
0.586458 0.00595306 0 29.5416
0.584375 0.00595319 0 29.4638
0.590625 0.00595272 0 29.6948
0.588541 0.00595289 0 29.6186
0.588541 0.00833488 0 29.7359
0.588541 0.00119254 0 29.3455
0.588541 0.00357159 0 29.4871
0.590625 0.00357154 0 29.5627
0.594791 0.00833366 0 29.9665
0.594791 0.0059525 0 29.8458
0.592708 0.00595259 0 29.7705
0.596875 0.00595246 0 29.9202
0.596875 0.00833354 0 30.043
0.596875 0.00119249 0 29.6392
0.596875 0.00357145 0 29.7855
0.582291 0.0035717 0.01 29.257
0.580208 0.0035717 0.01 29.1779
0.580208 0.00119258 0.01 29.0391
0.580208 0.00833613 0.01 29.424
0.580209 0.00595326 0.01 29.3089
0.582291 0.00595323 0.01 29.3886
0.576042 0.0059532 0.01 29.1475
0.578125 0.00595324 0.01 29.2284
0.578125 0.00833587 0.01 29.3428
0.590625 0.00357154 0.01 29.5644
0.588541 0.00357159 0.01 29.4892
0.588541 0.00119255 0.01 29.3468
0.588541 0.00833484 0.01 29.7409
0.588541 0.00595288 0.01 29.6223
0.590625 0.00595271 0.01 29.6978
0.584375 0.00595316 0.01 29.4676
0.586458 0.00595304 0.01 29.5456
0.586458 0.00833546 0.01 29.6637
0.596875 0.00357146 0.01 29.7839
0.596875 0.0011925 0.01 29.6381
0.596875 0.00833354 0.01 30.0393
0.596875 0.00595246 0.01 29.9184
0.592708 0.00595258 0.01 29.7721
0.594791 0.0059525 0.01 29.8457
0.594791 0.00833365 0.01 29.9652
0.101093 -0.00919501 0 1.32412
0.109385 -0.00876016 0 4.2381
0.117693 -0.00822008 0 6.0893
0.125998 -0.00774877 0 6.65633
0.134271 -0.00743849 0 6.89841
0.142702 -0.00798999 0 8.26355
0.151032 -0.00777377 0 8.526
0.15934 -0.00740347 0 9.03807
0.16766 -0.00718291 0 9.05381
0.176018 -0.0076363 0 9.78397
0.184371 -0.00773988 0 10.3441
0.192684 -0.00761805 0 10.7494
0.201019 -0.00747914 0 11.0255
0.209366 -0.00775086 0 11.2218
0.217709 -0.00781607 0 11.8862
0.226037 -0.00774777 0 12.3052
0.234365 -0.00767837 0 12.7524
0.242699 -0.00770513 0 13.129
0.243053 0.000406878 0 14.1115
0.251052 0.000560668 0 13.5102
0.1011 -0.00917048 0.01 2.10558
0.109395 -0.00873816 0.01 5.11054
0.117702 -0.00820226 0.01 7.01431
0.126007 -0.00773453 0.01 7.51748
0.134278 -0.00743684 0.01 7.8061
0.142732 -0.00800059 0.01 8.34687
0.151044 -0.00775151 0.01 8.73837
0.159347 -0.00741766 0.01 9.12704
0.167674 -0.00718652 0.01 9.37093
0.176018 -0.00763619 0.01 9.86798
0.184371 -0.00773948 0.01 10.5134
0.19269 -0.00760616 0.01 10.8877
0.201025 -0.00749327 0.01 11.1959
0.209366 -0.00775008 0.01 11.492
0.217709 -0.00781477 0.01 11.943
0.226037 -0.0077472 0.01 12.263
0.234366 -0.0076789 0.01 12.6384
0.242699 -0.00770661 0.01 12.9878
0.243052 0.000433816 0.01 13.2678
0.251056 0.000558977 0.01 14.4833
0.0490424 -0.0108272 0 4.90625
0.0508621 -0.0108253 0 8.56535
0.0991799 -0.00934788 0 -0.846627
0.107352 -0.00884906 0 3.46924
0.115657 -0.008354 0 4.65823
0.123959 -0.00786462 0 5.56242
0.132264 -0.00745458 0 6.18299
0.140649 -0.00797115 0 7.50011
0.148968 -0.00785052 0 8.50493
0.157287 -0.00749534 0 8.78475
0.165587 -0.00720717 0 9.49092
0.173912 -0.00744952 0 9.87061
0.182286 -0.00776731 0 10.2344
0.190609 -0.00762927 0 10.6073
0.198946 -0.0075188 0 11.0356
0.207644 -0.00210182 0 10.8586
0.207267 -0.00765824 0 11.3011
0.209519 -0.00221416 0 10.2371
0.215651 -0.00194939 0 12.1895
0.215621 -0.00782621 0 11.8872
0.217738 -0.00183307 0 11.9043
0.22395 -0.00146597 0 12.0711
0.22395 -0.00776587 0 12.2146
0.226043 -0.00134317 0 12.2312
0.232247 -0.000976902 0 12.777
0.232279 -0.00769406 0 12.6435
0.234318 -0.000808545 0 12.791
0.240509 -0.00051347 0 13.1075
0.24061 -0.0076827 0 13.0697
0.242594 -0.000824798 0 14.3639
0.248967 -0.00125271 0 13.1594
0.248953 -0.00770848 0 13.1699
0.249009 0.000444598 0 13.5529
0.257303 0.000919451 0 13.9673
0.0490354 -0.0108178 0.01 3.01835
0.050926 -0.0110853 0.01 7.99948
0.0991641 -0.00931944 0.01 -3.04226
0.107341 -0.00882798 0.01 3.69168
0.115645 -0.00833542 0.01 5.04938
0.123947 -0.00784961 0.01 5.88099
0.132255 -0.00745328 0.01 6.49352
0.140646 -0.00798151 0.01 7.35761
0.148952 -0.0078277 0.01 8.28117
0.157265 -0.00751084 0.01 8.84065
0.165587 -0.00720733 0.01 9.19537
0.173903 -0.00742945 0.01 10.0984
0.182286 -0.00776661 0.01 10.294
0.190609 -0.00763015 0.01 10.6626
0.198936 -0.00751944 0.01 11.037
0.207267 -0.00765835 0.01 11.5357
0.207643 -0.00206472 0.01 11.805
0.215622 -0.00782484 0.01 11.9138
0.215652 -0.00193307 0.01 13.0108
0.209519 -0.00217962 0.01 10.5062
0.22395 -0.00776516 0.01 12.1752
0.223954 -0.00146724 0.01 12.8789
0.217737 -0.00182164 0.01 11.3873
0.232279 -0.00769441 0.01 12.5441
0.23225 -0.000975793 0.01 13.4139
0.226039 -0.00134427 0.01 11.5558
0.24061 -0.0076837 0.01 12.9177
0.24051 -0.00050965 0.01 13.3704
0.234323 -0.000824955 0.01 11.8729
0.248953 -0.00770863 0.01 13.1299
0.248967 -0.00127208 0.01 13.2344
0.242587 -0.000801247 0.01 13.7495
0.249004 0.000443278 0.01 13.0995
0.257297 0.000937908 0.01 13.2147
0.251039 -0.00768908 0 13.2962
0.259353 -0.0076036 0 14.6108
0.259354 0.00104857 0 13.7433
0.267648 0.00152319 0 13.9416
0.275901 0.00156015 0 14.5854
0.284378 0.00113572 0 14.4063
0.292684 0.00143044 0 14.8381
0.301005 0.00169748 0 15.1978
0.309343 0.00131469 0 15.4337
0.317702 0.00129626 0 16.0297
0.326025 0.0014339 0 16.2719
0.33435 0.00150064 0 16.5858
0.342703 0.00124079 0 16.7828
0.351037 0.00125809 0 17.5714
0.359365 0.00131653 0 18.0467
0.367699 0.00126603 0 18.4224
0.36806 0.00983151 0 18.9683
0.37604 0.0012077 0 18.6857
0.376061 0.0100133 0 18.776
0.384372 0.00123079 0 19.1242
0.38435 0.0106087 0 19.158
0.392704 0.00124091 0 19.5644
0.392636 0.0110897 0 19.3758
0.40104 0.00120163 0 19.9327
0.401054 0.0105018 0 19.3376
0.409374 0.00120106 0 20.4037
0.409368 0.0107882 0 20.4202
0.417707 0.00121028 0 20.8751
0.417675 0.0111174 0 20.9669
0.42604 0.00120297 0 21.3262
0.425975 0.011015 0 22.0889
0.434375 0.00119364 0 21.7617
0.434364 0.0107562 0 22.101
0.442708 0.00119964 0 22.2225
0.442687 0.0109001 0 22.444
0.451041 0.00121353 0 22.6797
0.451017 0.0110045 0 22.9123
0.459374 0.0012282 0 23.1441
0.459371 0.0107585 0 23.2171
0.467707 0.00124459 0 23.6425
0.467704 0.0107775 0 23.9259
0.476041 0.00121869 0 24.0702
0.476032 0.0108386 0 24.3935
0.484375 0.00119596 0 24.4301
0.484364 0.010829 0 24.8292
0.492708 0.00119304 0 24.853
0.492707 0.0107364 0 25.1287
0.492737 0.0195073 0 25.1634
0.501042 0.00119307 0 25.3205
0.501039 0.0107518 0 25.6728
0.501021 0.020069 0 25.9075
0.509375 0.00119327 0 25.7769
0.509371 0.0107689 0 26.1361
0.509317 0.0205648 0 26.1195
0.517708 0.00119281 0 26.2129
0.517706 0.0107338 0 26.5633
0.517704 0.0201406 0 26.3711
0.526041 0.00119257 0 26.6401
0.526041 0.0107215 0 27.0302
0.526044 0.0201611 0 27.2923
0.534375 0.00119267 0 27.0551
0.534374 0.0107304 0 27.4818
0.534357 0.0204546 0 27.7629
0.542708 0.00119272 0 27.4502
0.542707 0.0107359 0 27.8905
0.542681 0.020781 0 28.1646
0.551041 0.0107221 0 28.2692
0.551013 0.020336 0 28.5855
0.559375 0.0107163 0 28.6791
0.559365 0.0202704 0 29.1455
0.567699 0.0204213 0 29.4845
0.251039 -0.00768915 0.01 13.2858
0.259353 -0.00760366 0.01 14.6159
0.259362 0.00105841 0.01 14.5724
0.267646 0.00156159 0.01 14.6332
0.275918 0.00155904 0.01 15.2401
0.284378 0.001143 0.01 14.7098
0.292689 0.00143669 0.01 14.9901
0.301006 0.00169893 0.01 15.2557
0.309348 0.00133215 0.01 15.3146
0.317702 0.00129567 0.01 16.0724
0.326025 0.00143218 0.01 16.3398
0.33435 0.00149862 0.01 16.6796
0.342704 0.00124073 0.01 16.7691
0.351037 0.00125771 0.01 17.5047
0.359365 0.00131575 0.01 17.9611
0.3677 0.00126553 0.01 18.3661
0.368058 0.00986982 0.01 18.7107
0.37604 0.00120756 0.01 18.7055
0.376066 0.0100695 0.01 19.5006
0.384372 0.00123045 0.01 19.1402
0.384355 0.010609 0.01 19.7177
0.392704 0.00124049 0.01 19.5663
0.392627 0.0111439 0.01 19.9239
0.401041 0.00120159 0.01 19.9317
0.401061 0.0105192 0.01 19.6255
0.409374 0.00120091 0.01 20.4153